
     Program PWSCF v.5.0        starts on 15Jun2012 at 16:19:50 

     This program is part of the open-source Quantum ESPRESSO suite
     for quantum simulation of materials; please cite
         "P. Giannozzi et al., J. Phys.:Condens. Matter 21 395502 (2009);
          URL http://www.quantum-espresso.org", 
     in publications or presentations arising from this work. More details at
     http://www.quantum-espresso.org/quote.php

     Parallel version (MPI), running on     4 processors
     K-points division:     npool     =    4

     Current dimensions of program PWSCF are:
     Max number of different atomic species (ntypx) = 10
     Max number of k-points (npk) =  40000
     Max angular momentum in pseudopotentials (lmaxx) =  3
     Waiting for input...
     Reading input from standard input
               file O.pbe-rrkjus.UPF: wavefunction(s)  2S renormalized
               file Fe.pbe-nd-rrkjus.UPF: wavefunction(s)  4S renormalized
               file Fe.pbe-nd-rrkjus.UPF: wavefunction(s)  4S renormalized

     Atomic positions and unit cell read from directory:
     temp/feo.save/
 

     Subspace diagonalization in iterative solution of the eigenvalue problem:
     a serial algorithm will be used

 
     G-vector sticks info
     --------------------
     sticks:   dense  smooth     PW     G-vecs:    dense   smooth      PW
     Sum        1061     539    179                17255     6111    1219
 


     bravais-lattice index     =            0
     lattice parameter (alat)  =       8.1900  a.u.
     unit-cell volume          =     274.6766 (a.u.)^3
     number of atoms/cell      =            4
     number of atomic types    =            3
     number of electrons       =        28.00
     number of Kohn-Sham states=           24
     kinetic-energy cutoff     =      30.0000  Ry
     charge density cutoff     =     240.0000  Ry
     Exchange-correlation      =  SLA  PW   PBE  PBE ( 1 4 3 4 0)
     EXX-fraction              =        0.00

     celldm(1)=   8.190000  celldm(2)=   0.000000  celldm(3)=   0.000000
     celldm(4)=   0.000000  celldm(5)=   0.000000  celldm(6)=   0.000000

     crystal axes: (cart. coord. in units of alat)
               a(1) = (   0.500000   0.500000   1.000000 )  
               a(2) = (   0.500000   1.000000   0.500000 )  
               a(3) = (   1.000000   0.500000   0.500000 )  

     reciprocal axes: (cart. coord. in units 2 pi/alat)
               b(1) = ( -0.500000 -0.500000  1.500000 )  
               b(2) = ( -0.500000  1.500000 -0.500000 )  
               b(3) = (  1.500000 -0.500000 -0.500000 )  


     PseudoPot. # 1 for O  read from file:
     ../pseudo/O.pbe-rrkjus.UPF
     MD5 check sum: 390ba29e75625707450f3bd3f0eb6be9
     Pseudo is Ultrasoft, Zval =  6.0
     Generated by new atomic code, or converted to UPF format
     Using radial grid of 1269 points,  4 beta functions with: 
                l(1) =   0
                l(2) =   0
                l(3) =   1
                l(4) =   1
     Q(r) pseudized with 0 coefficients 


     PseudoPot. # 2 for Fe read from file:
     ../pseudo/Fe.pbe-nd-rrkjus.UPF
     MD5 check sum: 23c640529ef232ac9996b4ec1b0ce2fd
     Pseudo is Ultrasoft + core correction, Zval =  8.0
     Generated by new atomic code, or converted to UPF format
     Using radial grid of  957 points,  6 beta functions with: 
                l(1) =   0
                l(2) =   0
                l(3) =   1
                l(4) =   1
                l(5) =   2
                l(6) =   2
     Q(r) pseudized with 0 coefficients 


     PseudoPot. # 3 for Fe read from file:
     ../pseudo/Fe.pbe-nd-rrkjus.UPF
     MD5 check sum: 23c640529ef232ac9996b4ec1b0ce2fd
     Pseudo is Ultrasoft + core correction, Zval =  8.0
     Generated by new atomic code, or converted to UPF format
     Using radial grid of  957 points,  6 beta functions with: 
                l(1) =   0
                l(2) =   0
                l(3) =   1
                l(4) =   1
                l(5) =   2
                l(6) =   2
     Q(r) pseudized with 0 coefficients 


     atomic species   valence    mass     pseudopotential
        O              6.00     1.00000     O ( 1.00)
        Fe1            8.00     1.00000     Fe( 1.00)
        Fe2            8.00     1.00000     Fe( 1.00)

     Starting magnetic structure 
     atomic species   magnetization
        O            0.000
        Fe1          0.500
        Fe2         -0.500
 -----
     simplified LDA+U calculation, Hubbard_lmax = 2
     atomic species  L   Hubbard U  Hubbard alpha
        Fe1          2    0.000000    0.000000
        Fe2          2    0.000000    0.000000
 -----

     12 Sym. Ops., with inversion, found



   Cartesian axes

     site n.     atom                  positions (alat units)
         1           O   tau(   1) = (   0.5000000   0.5000000   0.5000000  )
         2           O   tau(   2) = (   1.5000000   1.5000000   1.5000000  )
         3           Fe1 tau(   3) = (   0.0000000   0.0000000   0.0000000  )
         4           Fe2 tau(   4) = (   1.0000000   1.0000000   1.0000000  )

     number of k points=   130  Methfessel-Paxton smearing, width (Ry)=  0.0200

     Number of k-points >= 100: set verbosity='high' to print them.

     Dense  grid:    17255 G-vectors     FFT dimensions: (  50,  50,  50)

     Smooth grid:     6111 G-vectors     FFT dimensions: (  36,  36,  36)

     Largest allocated arrays     est. size (Mb)     dimensions
        Kohn-Sham Wavefunctions         0.29 Mb     (    780,   24)
        Atomic wavefunctions            0.24 Mb     (    780,   20)
        NL pseudopotentials             0.62 Mb     (    780,   52)
        Each V/rho on FFT grid          3.81 Mb     ( 125000,   2)
        Each G-vector array             0.13 Mb     (  17255)
        G-vector shells                 0.00 Mb     (    342)
     Largest temporary arrays     est. size (Mb)     dimensions
        Auxiliary wavefunctions         1.14 Mb     (    780,   96)
        Each subspace H/S matrix        0.14 Mb     (  96,  96)
        Each <psi_i|beta_j> matrix      0.02 Mb     (     52,   24)

     Check: negative/imaginary core charge=   -0.000003    0.000000

     The potential is recalculated from file :
     temp/feo.save/charge-density.dat

     Number of +U iterations with fixed ns =  0
     Starting occupations:
 --- enter write_ns ---
 LDA+U parameters:
U( 2)     =  0.00000000
alpha( 2) =  0.00000000
U( 3)     =  0.00000000
alpha( 3) =  0.00000000
atom    3   Tr[ns(na)] (up, down, total) =   4.97463  1.85925  6.83388
   spin  1
    eigenvalues: 
  0.991  0.991  0.998  0.998  0.998
    eigenvectors:
  0.518  0.443  0.035  0.003  0.000
  0.024  0.002  0.031  0.610  0.333
  0.001  0.025  0.347  0.294  0.333
  0.443  0.518  0.003  0.035  0.000
  0.014  0.012  0.584  0.057  0.333
    occupations:
  0.991 -0.001 -0.001  0.000 -0.001
 -0.001  0.998  0.000 -0.001  0.000
 -0.001  0.000  0.998  0.001  0.000
  0.000 -0.001  0.001  0.991  0.000
 -0.001  0.000  0.000  0.000  0.998
   spin  2
    eigenvalues: 
  0.281  0.281  0.282  0.508  0.508
    eigenvectors:
  0.033  0.922  0.000  0.039  0.006
  0.017  0.013  0.333  0.016  0.621
  0.027  0.003  0.333  0.383  0.253
  0.922  0.033  0.000  0.006  0.039
  0.001  0.029  0.333  0.556  0.081
    occupations:
  0.291 -0.019 -0.019  0.000 -0.038
 -0.019  0.426 -0.072 -0.033  0.072
 -0.019 -0.072  0.426  0.033  0.072
  0.000 -0.033  0.033  0.291  0.000
 -0.038  0.072  0.072  0.000  0.426
atomic mag. moment =     3.115381
atom    4   Tr[ns(na)] (up, down, total) =   1.85931  4.97463  6.83394
   spin  1
    eigenvalues: 
  0.281  0.281  0.282  0.508  0.508
    eigenvectors:
  0.042  0.913  0.000  0.033  0.012
  0.027  0.003  0.333  0.000  0.636
  0.017  0.014  0.333  0.492  0.145
  0.913  0.042  0.000  0.012  0.033
  0.001  0.029  0.333  0.463  0.174
    occupations:
  0.291 -0.019 -0.019  0.000 -0.038
 -0.019  0.426 -0.072 -0.033  0.072
 -0.019 -0.072  0.426  0.033  0.072
  0.000 -0.033  0.033  0.291  0.000
 -0.038  0.072  0.072  0.000  0.426
   spin  2
    eigenvalues: 
  0.991  0.991  0.998  0.998  0.998
    eigenvectors:
  0.918  0.043  0.033  0.005  0.000
  0.002  0.023  0.013  0.628  0.333
  0.012  0.014  0.396  0.245  0.333
  0.043  0.918  0.005  0.033  0.000
  0.025  0.001  0.552  0.089  0.333
    occupations:
  0.991 -0.001 -0.001  0.000 -0.001
 -0.001  0.998  0.000 -0.001  0.000
 -0.001  0.000  0.998  0.001  0.000
  0.000 -0.001  0.001  0.991  0.000
 -0.001  0.000  0.000  0.000  0.998
atomic mag. moment =    -3.115322
N of occupied +U levels =  13.6678265
 --- exit write_ns ---
 Atomic wfc used for LDA+U Projector are NOT orthogonalized
     Starting wfc are   20 randomized atomic wfcs

     total cpu time spent up to now is        2.7 secs

     per-process dynamical memory:    27.0 Mb

     Band Structure Calculation
     Davidson diagonalization with overlap

     ethr =  3.57E-09,  avg # of iterations = 16.4

     total cpu time spent up to now is       31.4 secs

     End of band structure calculation

 ------ SPIN UP ------------


          k = 0.0000 0.0000 0.0000     band energies (ev):

    -8.8511  -7.7166   3.2232   5.4963   5.4963   7.9485   7.9540   7.9540
     8.1044   8.1484   8.1484   9.2738   9.2738  11.5232  11.5232  11.8624
    11.9450  13.5554  13.5554  15.8245  20.3364  24.4140  24.4140  26.8263

          k = 0.1875-0.0625-0.0625     band energies (ev):

    -8.7168  -7.7036   3.4747   5.4134   5.5476   6.7256   7.4092   7.4575
     8.0888   8.4622   8.5275   9.3766   9.6307  11.4543  11.6273  11.9154
    12.7679  13.3556  13.5124  16.7590  20.2083  23.2319  24.7690  25.3372

          k = 0.3750-0.1250-0.1250     band energies (ev):

    -8.3740  -7.6684   4.0839   5.1350   5.2798   5.6490   6.6929   6.8718
     8.0079   8.6636   8.7057   9.6563   9.6715  11.2738  11.8871  12.0897
    12.9187  13.4276  14.9270  18.5063  19.9514  21.3543  23.3640  25.4207

          k = 0.5625-0.1875-0.1875     band energies (ev):

    -7.9854  -7.6457   4.3074   4.4866   5.0279   5.6973   6.0205   6.5678
     7.9093   8.6511   8.8921   9.6551   9.9256  11.0560  12.1333  12.3583
    13.1531  13.3640  16.6137  19.2586  19.7673  20.7690  21.6418  23.3408

          k =-0.7500 0.2500 0.2500     band energies (ev):

    -7.7370  -7.7131   4.0546   4.3418   5.1553   5.6927   5.7966   6.4887
     7.8560   8.6392   8.8960   9.7997  10.0346  10.9602  12.2258  12.4545
    13.3288  13.3425  17.7539  18.1693  20.0768  20.5854  21.9366  21.9727

          k = 0.1250 0.1250-0.1250     band energies (ev):

    -8.7040  -7.7200   3.5156   5.4034   5.6015   6.7549   7.2744   7.3302
     8.1445   8.4154   8.4334   9.6405   9.6504  11.4128  11.6456  11.9213
    12.8922  13.3146  13.4017  16.7440  20.2437  23.3248  24.7931  25.0286

          k = 0.3125 0.0625-0.1875     band energies (ev):

    -8.4563  -7.7044   3.9550   5.3008   5.4789   5.7988   6.6404   6.9548
     8.1435   8.6213   8.6569   9.4721   9.8297  11.5033  11.6390  12.0617
    12.9965  13.3615  14.4185  17.9103  20.1730  22.0822  23.6433  25.0791

          k = 0.5000 0.0000-0.2500     band energies (ev):

    -8.0955  -7.6614   4.3735   4.5852   5.2381   5.6123   6.2403   6.3980
     8.1222   8.7001   8.8897   9.3472   9.7973  11.4073  11.8502  12.3148
    13.0216  13.4049  16.1992  19.0996  20.2278  20.8607  22.4908  23.1753

          k =-0.8125 0.4375 0.1875     band energies (ev):

    -7.7948  -7.6563   4.1964   4.3344   5.1995   5.6616   5.8738   6.1063
     8.0870   8.6711   8.8958   9.6400   9.8239  11.2615  12.1197  12.3952
    13.2734  13.3849  17.7058  18.8739  19.8247  21.0917  21.4885  21.8484

          k =-0.6250 0.3750 0.1250     band energies (ev):

    -7.7998  -7.6524   4.0787   4.6089   5.1689   5.6481   5.7464   6.0701
     8.1106   8.6743   8.8900   9.6682   9.8303  11.2466  12.1257  12.3973
    13.1870  13.5256  17.4293  18.9434  20.2238  20.8361  21.2032  22.2361

          k =-0.4375 0.3125 0.0625     band energies (ev):

    -8.1180  -7.6385   4.5271   4.6571   5.0650   5.6555   6.0943   6.3198
     8.1648   8.6978   8.8407   9.4700   9.8651  11.3757  11.8557  12.3066
    13.0770  13.4862  15.8490  19.5920  19.8348  20.8582  22.1898  23.6552

          k =-0.2500 0.2500 0.0000     band energies (ev):

    -8.4849  -7.6707   3.9103   5.2729   5.5071   5.8418   6.6162   6.9548
     8.1580   8.6083   8.7169   9.3886   9.9170  11.5045  11.6303  12.0618
    13.2055  13.2577  14.1895  18.1010  19.9427  22.0451  23.7583  24.9661

          k = 0.2500 0.2500-0.2500     band energies (ev):

    -8.3253  -7.7250   4.1803   5.0370   5.3558   5.8151   6.5143   6.5948
     8.0662   8.5846   8.5879   9.9434   9.9630  11.2048  11.9206  12.0804
    13.2732  13.2752  14.5462  17.9824  20.3019  21.9070  22.5220  25.5568

          k = 0.4375 0.1875-0.3125     band energies (ev):

    -8.0576  -7.7021   4.3006   4.4694   5.5121   5.7747   5.9970   6.3528
     8.1691   8.6084   8.7147   9.6552   9.9131  11.3816  11.8646  12.3015
    13.1568  13.4619  15.7910  18.3559  20.5058  21.5330  21.6030  24.3963

          k =-0.8750 0.6250 0.1250     band energies (ev):

    -7.7994  -7.6529   4.0903   4.5932   5.2458   5.5396   5.7650   6.0535
     8.2636   8.7010   8.7167   9.6706   9.7772  11.6863  11.7986  12.3667
    13.1715  13.5242  17.4312  18.9639  20.1732  20.8539  21.1936  22.2800

          k =-0.6875 0.5625 0.0625     band energies (ev):

    -7.6669  -7.6556   4.2647   4.5024   5.1546   5.3646   5.7068   5.7645
     8.2749   8.7307   8.8236   9.5998   9.7914  11.6888  12.0295  12.2170
    13.2628  13.5327  18.8655  19.0037  19.9958  20.3877  20.9672  21.2158

          k =-0.5000 0.5000 0.0000     band energies (ev):

    -7.8307  -7.6237   4.1327   5.1004   5.1195   5.4332   5.6817   5.7177
     8.2902   8.7242   8.8907   9.4256   9.7739  11.7064  11.7741  12.3678
    13.0442  13.7395  17.2695  19.4394  20.7710  20.8007  21.3238  21.7297

          k = 0.3750 0.3750-0.3750     band energies (ev):

    -7.9057  -7.7256   3.7338   4.4738   5.6354   5.6783   6.2443   6.6232
     7.8070   8.6603   8.6921   9.7885   9.9133  11.1691  12.1468  12.3125
    13.4996  13.5846  15.6245  17.7222  20.4306  20.8812  22.2386  24.9876

          k =-0.9375 0.8125 0.0625     band energies (ev):

    -7.7489  -7.6979   3.5262   4.5487   5.4894   5.6190   6.0559   6.4811
     7.9673   8.6337   8.7082   9.7222   9.8689  11.3551  12.1202  12.3895
    13.3748  13.6884  16.5044  17.8228  20.3351  20.5169  22.1013  23.6417

          k =-0.7500 0.7500 0.0000     band energies (ev):

    -7.6707  -7.6489   3.9218   4.7769   5.0138   5.2957   5.6842   6.1798
     8.2296   8.6847   8.7114   9.7452   9.8755  11.6870  12.0487  12.2146
    13.3251  13.5212  18.1051  18.6645  20.0844  20.4888  20.6561  22.1099

          k =-0.5000-0.5000 0.5000     band energies (ev):

    -7.7248  -7.7167   3.2339   4.4751   5.5298   5.5309   6.8202   6.8229
     7.4396   8.6242   8.7263   9.6496   9.8325  11.2182  12.2394  12.4489
    13.6696  13.7668  15.8248  17.3158  20.3965  20.4008  22.8617  24.3947

          k = 0.0625 0.0625 0.0625     band energies (ev):

    -8.8136  -7.7667   3.3508   5.5358   5.5358   7.5091   7.7678   7.7678
     8.1589   8.1589   8.2474   9.4463   9.4463  11.5117  11.5117  11.8638
    12.1895  13.5118  13.5118  15.7974  20.4296  24.5737  24.5737  26.2154

          k = 0.2500 0.0000 0.0000     band energies (ev):

    -8.6607  -7.7743   3.6370   5.4842   5.5650   6.4109   7.3877   7.3941
     8.0597   8.5620   8.5969   9.3234   9.5317  11.4907  11.6051  11.8902
    12.7352  13.5601  13.6632  16.6148  20.4383  23.3371  25.0233  25.2167

          k = 0.4375-0.0625-0.0625     band energies (ev):

    -8.3225  -7.7260   4.0689   5.0185   5.3811   5.6215   6.9221   6.9621
     7.9031   8.7097   8.8338   9.3432   9.4671  11.3489  11.8775  12.1058
    12.6715  13.5401  15.4412  18.0110  20.5744  21.3047  23.7727  24.8362

          k =-0.8750 0.3750 0.3750     band energies (ev):

    -7.9614  -7.6682   4.0923   4.3569   5.2698   5.6357   6.3083   6.6955
     7.8104   8.6498   8.9294   9.5093   9.7776  11.1347  12.1288  12.3606
    13.0243  13.4769  16.9542  18.5037  19.9266  21.3798  21.8521  22.8349

          k =-0.6875 0.3125 0.3125     band energies (ev):

    -7.7355  -7.7132   3.8293   4.4326   5.2706   5.6626   5.8887   6.5418
     7.8250   8.6374   8.8749   9.7962   9.9769  11.0008  12.2280  12.4540
    13.3743  13.3930  17.4299  18.0078  20.1535  20.6077  21.8329  22.5560

          k =-0.5000 0.2500 0.2500     band energies (ev):

    -7.9834  -7.6487   4.1542   4.7899   4.9566   5.7446   5.8929   6.4884
     7.9441   8.6542   8.8191   9.8130   9.9904  11.0338  12.1414  12.3446
    13.3216  13.3638  16.1600  18.7862  20.4687  20.6417  21.3028  24.1620

          k =-0.3125 0.1875 0.1875     band energies (ev):

    -8.3750  -7.6680   4.1284   5.1719   5.2443   5.7234   6.5360   6.7268
     8.0650   8.6165   8.6229   9.8508   9.9080  11.2136  11.9049  12.0850
    13.1939  13.3151  14.5430  18.4411  19.8952  21.5805  22.9074  25.4348

          k = 0.1875 0.1875-0.0625     band energies (ev):

    -8.6238  -7.8200   3.7524   5.4597   5.7144   6.3985   7.0476   7.1689
     8.1785   8.3506   8.5633   9.5320   9.9014  11.3843  11.6516  11.8963
    13.0848  13.2874  13.5439  16.5619  20.5682  23.6035  24.5316  25.0619

          k = 0.3750 0.1250-0.1250     band energies (ev):

    -8.3740  -7.7993   4.0819   5.1610   5.5510   5.8438   6.5975   6.9259
     8.1308   8.5491   8.6896   9.5401   9.6859  11.5096  11.6493  12.0691
    12.8093  13.3784  14.9314  17.4458  20.7775  22.2038  23.3633  25.3886

          k =-0.9375 0.5625 0.3125     band energies (ev):

    -8.0405  -7.7180   4.1869   4.4843   5.4600   5.6391   6.2873   6.5796
     8.0537   8.6825   8.8182   9.3840   9.7136  11.4444  11.8504  12.3234
    12.9274  13.4154  16.5847  18.2677  20.5449  21.3815  22.3339  23.0016

          k =-0.7500 0.5000 0.2500     band energies (ev):

    -7.7787  -7.6702   3.9161   4.3559   5.2975   5.6708   6.0827   6.1965
     8.0344   8.6630   8.8320   9.6752   9.7903  11.3041  12.1165  12.3908
    13.3125  13.4048  17.7686  18.1045  19.9382  20.9532  21.9076  22.1371

          k =-0.5625 0.4375 0.1875     band energies (ev):

    -7.7927  -7.6587   3.8549   4.6938   5.3432   5.6250   5.8042   6.0620
     8.1068   8.6672   8.8310   9.7337   9.8053  11.2666  12.1297  12.3960
    13.1863  13.6753  16.9957  18.5564  20.4770  20.6176  21.4467  22.8161

          k =-0.3750 0.3750 0.1250     band energies (ev):

    -8.1048  -7.6529   4.4634   4.6051   5.2010   5.7233   6.0189   6.2936
     8.1786   8.6867   8.7424   9.6269   9.8850  11.3651  11.8622  12.3022
    13.0991  13.5570  15.6708  18.9736  20.2217  21.1734  21.8518  24.1079

          k = 0.3125 0.3125-0.1875     band energies (ev):

    -8.2311  -7.8287   4.2489   4.7576   5.6594   5.8554   6.5182   6.5624
     8.0225   8.5838   8.5956   9.8285   9.8894  11.2518  11.9231  12.0746
    13.0998  13.3322  14.9991  17.4664  20.9304  22.0630  22.4406  25.5820

          k =-1.0000 0.7500 0.2500     band energies (ev):

    -7.9832  -7.7781   4.1486   4.3757   5.7114   5.8087   6.0580   6.4761
     8.1349   8.5222   8.7299   9.5641   9.9235  11.4184  11.8633  12.3045
    13.2086  13.3022  16.1707  17.8113  20.7790  21.3604  21.9778  24.1426

          k =-0.8125 0.6875 0.1875     band energies (ev):

    -7.7651  -7.6856   4.1027   4.3535   5.3007   5.4982   5.8793   6.2376
     8.2335   8.6121   8.6979   9.7227   9.8721  11.6803  11.8150  12.3651
    13.2594  13.3833  17.6133  18.4658  20.0611  20.6806  21.5119  22.3171

          k =-0.6250 0.6250 0.1250     band energies (ev):

    -7.6689  -7.6524   4.0975   4.5885   5.1979   5.2636   5.7338   5.9196
     8.2613   8.7228   8.7635   9.6581   9.8256  11.6873  12.0395  12.2167
    13.2499  13.5727  18.5111  18.8410  20.0034  20.3230  21.1257  21.4764

          k =-0.4375 0.5625 0.0625     band energies (ev):

    -7.8226  -7.6313   4.1159   4.8722   5.2024   5.5006   5.6916   5.8297
     8.2839   8.7186   8.8280   9.5113   9.7703  11.6987  11.7813  12.3676
    13.0816  13.6741  17.3119  19.3323  20.4880  20.8946  21.1674  21.9680

          k =-0.5625-0.5625 0.6875     band energies (ev):

    -7.8420  -7.7878   3.6280   4.3866   5.6210   5.6920   6.6256   6.7493
     7.6563   8.6624   8.6777   9.6401   9.8154  11.2453  12.1430  12.3060
    13.4054  13.6068  15.9489  17.4246  20.4870  20.8511  22.7849  24.4192

          k =-0.3750-0.6250 0.6250     band energies (ev):

    -7.7266  -7.7191   3.5267   4.4708   5.4381   5.6583   6.0969   6.6139
     7.9034   8.6411   8.6974   9.7254   9.8423  11.3721  12.1159  12.3873
    13.4146  13.5743  16.7490  17.6934  20.2437  20.5630  22.2132  23.3791

          k =-0.1875-0.6875 0.5625     band energies (ev):

    -7.6702  -7.6499   3.9691   4.6968   5.1127   5.2637   5.7026   6.1051
     8.2407   8.7063   8.7154   9.7183   9.8614  11.6869  12.0463  12.2153
    13.2879  13.5535  18.2096  18.7181  20.0580  20.3668  20.8889  21.8867

          k = 0.0000-0.7500 0.5000     band energies (ev):

    -7.6655  -7.6574   4.3985   4.4171   5.1515   5.3784   5.6312   5.7648
     8.2790   8.7339   8.8498   9.5752   9.7788  11.6901  12.0245  12.2167
    13.2909  13.4915  18.9487  19.1730  20.0319  20.5427  20.7619  21.0022

          k =-0.4375-0.4375 0.5625     band energies (ev):

    -7.7272  -7.7154   3.3090   4.4772   5.5099   5.5496   6.5959   6.7760
     7.5642   8.6271   8.7547   9.7055   9.8213  11.1823  12.2379  12.4502
    13.6242  13.6730  16.0957  17.4237  20.3550  20.4436  22.6875  24.1022

          k =-0.2500-0.5000 0.5000     band energies (ev):

    -7.7746  -7.6746   3.6477   4.6334   5.4865   5.5943   5.9944   6.1815
     8.0612   8.6501   8.7566   9.7451   9.8291  11.3109  12.1267  12.3929
    13.2666  13.7476  16.6153  18.1341  20.4087  20.5375  21.8608  23.3602

          k =-0.3125-0.3125 0.4375     band energies (ev):

    -7.9554  -7.6768   3.9319   4.6113   5.3870   5.7344   5.9549   6.5120
     7.9089   8.6572   8.7475   9.9096   9.9330  11.0815  12.1466  12.3276
    13.3798  13.5571  15.7451  18.1954  20.3923  21.0297  21.5289  24.8880

          k = 0.1250 0.1250 0.1250     band energies (ev):

    -8.7041  -7.9055   3.7193   5.6448   5.6448   6.7571   7.4127   7.4127
     8.1762   8.1762   8.3069   9.7776   9.7776  11.4838  11.4838  11.7599
    12.8848  13.4027  13.4027  15.6379  20.7685  25.0109  25.0343  25.0343

          k = 0.3125 0.0625 0.0625     band energies (ev):

    -8.5419  -7.9173   3.9809   5.4802   5.6495   6.1437   7.0555   7.2150
     8.0756   8.4802   8.6628   9.5289   9.5469  11.5019  11.5929  11.8571
    12.6894  13.5219  14.2409  16.2556  20.9728  23.6281  24.4760  25.5567

          k =-1.0000 0.5000 0.5000     band energies (ev):

    -8.2274  -7.8307   4.1142   4.8008   5.6182   5.6462   6.9485   7.0024
     7.8214   8.7101   8.9522   9.1066   9.4124  11.3939  11.8808  12.1233
    12.5619  13.5912  15.9697  17.2701  21.2867  21.6342  23.8092  23.8741

          k =-0.8125 0.4375 0.4375     band energies (ev):

    -7.9153  -7.7133   3.8055   4.3504   5.4855   5.5951   6.6466   6.7982
     7.6638   8.6529   8.8537   9.5121   9.6319  11.2216  12.1304  12.3414
    13.0331  13.5901  17.1499  17.5057  20.2043  21.4961  22.2946  22.9934

          k =-0.6250 0.3750 0.3750     band energies (ev):

    -7.7317  -7.7140   3.5224   4.4747   5.4320   5.6010   6.1926   6.6617
     7.7273   8.6328   8.8181   9.8011   9.8404  11.0934  12.2332  12.4522
    13.5017  13.5111  16.7351  17.6978  20.2685  20.5315  22.2420  23.3564

          k = 0.2500 0.2500 0.0000     band energies (ev):

    -8.4850  -7.9830   4.1473   5.4314   5.8385   6.0639   6.8435   6.8981
     8.1736   8.3393   8.6855   9.4742  10.0318  11.3874  11.6427  11.8524
    13.0208  13.2412  14.1886  16.1723  21.2240  23.7015  24.2201  25.5150

          k =-1.0625 0.6875 0.4375     band energies (ev):

    -8.2483  -7.9375   4.2722   4.8729   5.7298   6.0200   6.4839   6.7675
     8.1620   8.4862   8.7972   9.3101   9.7564  11.5269  11.6436  12.0834
    12.7430  13.3368  15.5467  16.8475  21.6499  22.4290  23.0265  24.3997

          k =-0.8750 0.6250 0.3750     band energies (ev):

    -7.9612  -7.7993   4.0771   4.3928   5.5798   5.7721   6.2547   6.6953
     8.0134   8.5914   8.7739   9.4439   9.7295  11.4650  11.8548  12.3222
    12.9265  13.4183  16.9513  17.4620  20.7235  21.8547  22.2322  22.8453

          k =-0.6875 0.5625 0.3125     band energies (ev):

    -7.7544  -7.6922   3.6605   4.4092   5.3770   5.6741   6.1176   6.4673
     7.9521   8.6554   8.7426   9.7511   9.7611  11.3505  12.1153  12.3877
    13.3413  13.5089  17.3143  17.7170  20.1107  20.7069  22.1740  22.7717

          k =-0.6250-0.6250 0.8750     band energies (ev):

    -8.1049  -7.9610   4.3228   4.5365   5.8031   5.9171   6.5551   6.6694
     7.9487   8.6082   8.6622   9.5783   9.7238  11.3258  11.9121  12.0793
    12.8583  13.4514  15.6749  16.9683  21.6337  21.9599  22.8594  24.1371

          k =-0.4375-0.6875 0.8125     band energies (ev):

    -7.8925  -7.8691   4.0656   4.3505   5.6584   5.8580   6.1816   6.6243
     8.0639   8.5110   8.7546   9.4788   9.8458  11.4544  11.8598  12.3123
    13.0467  13.3642  16.7250  17.3678  20.8657  21.4477  22.4125  23.2500

          k =-0.2500-0.7500 0.7500     band energies (ev):

    -7.7286  -7.7214   4.1841   4.1892   5.3379   5.4625   5.9289   6.3078
     8.2176   8.5747   8.6942   9.7240   9.9291  11.6797  11.8215  12.3644
    13.2956  13.3269  17.7732  18.1722  20.0429  20.6068  21.7754  22.1526

          k =-0.5000-0.5000 0.7500     band energies (ev):

    -7.8544  -7.7743   3.6484   4.3497   5.5897   5.6344   6.8203   6.8226
     7.5601   8.6593   8.7340   9.5740   9.6527  11.2669  12.1364  12.3163
    13.1784  13.6424  16.6180  17.2696  20.3984  21.0793  23.0796  23.3679

          k = 0.1875 0.1875 0.1875     band energies (ev):

    -8.5349  -8.1036   4.2856   5.7860   5.7860   5.9156   7.0890   7.0890
     8.1922   8.1922   8.3212  10.0564  10.0564  11.4557  11.4557  11.6601
    13.2862  13.2862  13.7197  15.2323  21.4324  23.7114  25.7432  25.7432

          k =-1.1250 0.6250 0.6250     band energies (ev):

    -8.3743  -8.1044   4.4599   5.1387   5.7749   6.2403   6.6130   6.9738
     8.1101   8.4068   8.6754   9.5892   9.7913  11.4741  11.5997  11.8332
    12.7232  13.4149  14.9259  15.6763  21.7950  23.3641  24.1109  25.7417

          k =-0.9375 0.5625 0.5625     band energies (ev):

    -8.1010  -7.9642   4.2284   4.5984   5.7149   5.8580   6.7982   6.8316
     7.8612   8.6585   8.7890   9.3026   9.5298  11.3840  11.8950  12.1035
    12.6473  13.5562  16.4376  16.4976  21.5237  22.7365  22.8592  23.3792

          k =-0.6875-0.6875 1.0625     band energies (ev):

    -8.3047  -8.1777   4.6387   5.0021   5.8714   6.2011   6.5669   6.8049
     8.1462   8.3614   8.6948   9.5434   9.9845  11.4242  11.6214  11.8271
    12.8617  13.2964  14.9482  15.6033  22.1517  22.8657  24.6928  24.9511

          k =-0.5000-0.7500 1.0000     band energies (ev):

    -8.1008  -8.0901   4.4375   4.6684   5.8165   6.1871   6.4124   6.6075
     8.1885   8.4632   8.8947   9.1549   9.7880  11.5394  11.6345  12.0890
    12.7453  13.3038  16.1698  16.2271  22.3738  22.6057  23.0075  23.2644

          k =-0.2500-0.2500-0.2500     band energies (ev):

    -8.3375  -8.3129   4.8384   5.2637   5.8618   5.8618   6.9478   6.9478
     8.1987   8.1987   8.3233  10.1644  10.1644  11.4439  11.4439  11.6203
    13.2346  13.2346  14.3906  14.7140  22.2131  22.7091  26.4893  26.4893

 ------ SPIN DOWN ----------


          k = 0.0000 0.0000 0.0000     band energies (ev):

    -8.8511  -7.7166   3.2233   5.4967   5.4967   7.9485   7.9540   7.9540
     8.1051   8.1496   8.1496   9.2743   9.2743  11.5223  11.5223  11.8619
    11.9446  13.5547  13.5547  15.8245  20.3363  24.4141  24.4141  26.8263

          k = 0.1875-0.0625-0.0625     band energies (ev):

    -8.7168  -7.7036   3.4747   5.4138   5.5480   6.7258   7.4095   7.4576
     8.0897   8.4631   8.5284   9.3771   9.6313  11.4534  11.6263  11.9144
    12.7678  13.3548  13.5116  16.7590  20.2082  23.2320  24.7691  25.3372

          k = 0.3750-0.1250-0.1250     band energies (ev):

    -8.3740  -7.6684   4.0839   5.1353   5.2799   5.6494   6.6930   6.8720
     8.0088   8.6646   8.7066   9.6569   9.6722  11.2730  11.8861  12.0887
    12.9178  13.4268  14.9268  18.5063  19.9513  21.3544  23.3639  25.4209

          k = 0.5625-0.1875-0.1875     band energies (ev):

    -7.9854  -7.6457   4.3075   4.4867   5.0280   5.6977   6.0206   6.5678
     7.9102   8.6524   8.8931   9.6559   9.9263  11.0552  12.1323  12.3573
    13.1522  13.3631  16.6136  19.2587  19.7673  20.7691  21.6416  23.3408

          k =-0.7500 0.2500 0.2500     band energies (ev):

    -7.7370  -7.7131   4.0548   4.3418   5.1557   5.6931   5.7965   6.4886
     7.8569   8.6405   8.8970   9.8005  10.0353  10.9594  12.2248  12.4534
    13.3279  13.3416  17.7540  18.1693  20.0768  20.5852  21.9365  21.9728

          k = 0.1250 0.1250-0.1250     band energies (ev):

    -8.7040  -7.7200   3.5157   5.4038   5.6019   6.7550   7.2747   7.3302
     8.1453   8.4163   8.4342   9.6410   9.6510  11.4119  11.6447  11.9203
    12.8922  13.3138  13.4008  16.7440  20.2437  23.3249  24.7932  25.0286

          k = 0.3125 0.0625-0.1875     band energies (ev):

    -8.4563  -7.7044   3.9551   5.3011   5.4792   5.7989   6.6407   6.9549
     8.1444   8.6223   8.6577   9.4727   9.8303  11.5025  11.6381  12.0607
    12.9957  13.3606  14.4184  17.9103  20.1730  22.0823  23.6433  25.0792

          k = 0.5000 0.0000-0.2500     band energies (ev):

    -8.0955  -7.6614   4.3736   4.5854   5.2382   5.6126   6.2405   6.3981
     8.1231   8.7013   8.8906   9.3480   9.7980  11.4064  11.8492  12.3137
    13.0208  13.4040  16.1992  19.0995  20.2279  20.8607  22.4908  23.1752

          k =-0.8125 0.4375 0.1875     band energies (ev):

    -7.7948  -7.6563   4.1966   4.3344   5.1998   5.6619   5.8738   6.1064
     8.0879   8.6724   8.8968   9.6408   9.8246  11.2606  12.1187  12.3941
    13.2725  13.3840  17.7058  18.8739  19.8246  21.0916  21.4885  21.8483

          k =-0.6250 0.3750 0.1250     band energies (ev):

    -7.7998  -7.6524   4.0788   4.6090   5.1692   5.6484   5.7465   6.0702
     8.1115   8.6755   8.8910   9.6690   9.8310  11.2457  12.1247  12.3962
    13.1861  13.5247  17.4294  18.9435  20.2238  20.8361  21.2032  22.2361

          k =-0.4375 0.3125 0.0625     band energies (ev):

    -8.1180  -7.6385   4.5271   4.6573   5.0652   5.6558   6.0944   6.3200
     8.1657   8.6989   8.8416   9.4707   9.8657  11.3748  11.8547  12.3055
    13.0762  13.4853  15.8489  19.5920  19.8348  20.8582  22.1898  23.6552

          k =-0.2500 0.2500 0.0000     band energies (ev):

    -8.4849  -7.6707   3.9103   5.2732   5.5074   5.8419   6.6163   6.9549
     8.1589   8.6094   8.7177   9.3892   9.9177  11.5037  11.6293  12.0608
    13.2048  13.2568  14.1894  18.1010  19.9427  22.0452  23.7584  24.9662

          k = 0.2500 0.2500-0.2500     band energies (ev):

    -8.3253  -7.7250   4.1803   5.0372   5.3561   5.8156   6.5143   6.5949
     8.0671   8.5855   8.5889   9.9441   9.9637  11.2039  11.9197  12.0794
    13.2723  13.2742  14.5463  17.9824  20.3019  21.9071  22.5219  25.5571

          k = 0.4375 0.1875-0.3125     band energies (ev):

    -8.0576  -7.7021   4.3007   4.4695   5.5124   5.7750   5.9972   6.3528
     8.1700   8.6094   8.7158   9.6559   9.9138  11.3808  11.8637  12.3005
    13.1559  13.4610  15.7910  18.3559  20.5059  21.5329  21.6030  24.3965

          k =-0.8750 0.6250 0.1250     band energies (ev):

    -7.7994  -7.6529   4.0904   4.5933   5.2459   5.5399   5.7652   6.0535
     8.2645   8.7021   8.7177   9.6714   9.7780  11.6855  11.7976  12.3656
    13.1706  13.5233  17.4313  18.9639  20.1733  20.8538  21.1936  22.2799

          k =-0.6875 0.5625 0.0625     band energies (ev):

    -7.6669  -7.6556   4.2648   4.5024   5.1548   5.3646   5.7069   5.7647
     8.2758   8.7318   8.8247   9.6006   9.7921  11.6879  12.0285  12.2160
    13.2619  13.5318  18.8655  19.0039  19.9958  20.3876  20.9673  21.2155

          k =-0.5000 0.5000 0.0000     band energies (ev):

    -7.8307  -7.6237   4.1328   5.1006   5.1196   5.4333   5.6820   5.7177
     8.2910   8.7254   8.8916   9.4265   9.7745  11.7056  11.7731  12.3667
    13.0433  13.7386  17.2695  19.4394  20.7712  20.8008  21.3236  21.7295

          k = 0.3750 0.3750-0.3750     band energies (ev):

    -7.9057  -7.7256   3.7339   4.4738   5.6358   5.6787   6.2442   6.6232
     7.8078   8.6615   8.6931   9.7891   9.9140  11.1683  12.1457  12.3114
    13.4988  13.5837  15.6245  17.7222  20.4308  20.8810  22.2386  24.9879

          k =-0.9375 0.8125 0.0625     band energies (ev):

    -7.7489  -7.6979   3.5263   4.5488   5.4897   5.6193   6.0561   6.4811
     7.9680   8.6349   8.7093   9.7228   9.8696  11.3544  12.1192  12.3884
    13.3740  13.6875  16.5044  17.8229  20.3352  20.5168  22.1013  23.6417

          k =-0.7500 0.7500 0.0000     band energies (ev):

    -7.6707  -7.6489   3.9218   4.7769   5.0139   5.2959   5.6845   6.1798
     8.2304   8.6857   8.7125   9.7459   9.8763  11.6862  12.0477  12.2135
    13.3242  13.5203  18.1051  18.6647  20.0842  20.4888  20.6562  22.1098

          k =-0.5000-0.5000 0.5000     band energies (ev):

    -7.7248  -7.7167   3.2340   4.4751   5.5301   5.5312   6.8202   6.8229
     7.4404   8.6255   8.7274   9.6502   9.8331  11.2175  12.2384  12.4478
    13.6687  13.7659  15.8248  17.3159  20.3964  20.4008  22.8616  24.3949

          k = 0.0625 0.0625 0.0625     band energies (ev):

    -8.8135  -7.7667   3.3509   5.5362   5.5362   7.5092   7.7678   7.7678
     8.1600   8.1600   8.2480   9.4467   9.4467  11.5107  11.5107  11.8629
    12.1896  13.5110  13.5110  15.7974  20.4295  24.5738  24.5738  26.2154

          k = 0.2500 0.0000 0.0000     band energies (ev):

    -8.6607  -7.7743   3.6371   5.4846   5.5654   6.4109   7.3880   7.3943
     8.0607   8.5629   8.5976   9.3239   9.5323  11.4899  11.6041  11.8892
    12.7348  13.5594  13.6627  16.6148  20.4382  23.3372  25.0234  25.2167

          k = 0.4375-0.0625-0.0625     band energies (ev):

    -8.3225  -7.7260   4.0690   5.0186   5.3812   5.6219   6.9222   6.9624
     7.9040   8.7108   8.8347   9.3439   9.4677  11.3481  11.8765  12.1048
    12.6707  13.5393  15.4410  18.0110  20.5743  21.3047  23.7727  24.8362

          k =-0.8750 0.3750 0.3750     band energies (ev):

    -7.9614  -7.6682   4.0924   4.3570   5.2699   5.6360   6.3085   6.6956
     7.8112   8.6511   8.9303   9.5101   9.7782  11.1339  12.1277  12.3595
    13.0234  13.4760  16.9541  18.5037  19.9267  21.3798  21.8520  22.8349

          k =-0.6875 0.3125 0.3125     band energies (ev):

    -7.7355  -7.7132   3.8294   4.4326   5.2709   5.6630   5.8886   6.5418
     7.8259   8.6387   8.8759   9.7970   9.9776  11.0000  12.2270  12.4529
    13.3733  13.3921  17.4299  18.0079  20.1535  20.6076  21.8329  22.5560

          k =-0.5000 0.2500 0.2500     band energies (ev):

    -7.9834  -7.6487   4.1543   4.7900   4.9568   5.7451   5.8929   6.4884
     7.9450   8.6555   8.8201   9.8138   9.9911  11.0329  12.1404  12.3435
    13.3206  13.3629  16.1600  18.7862  20.4688  20.6417  21.3027  24.1620

          k =-0.3125 0.1875 0.1875     band energies (ev):

    -8.3750  -7.6680   4.1285   5.1722   5.2444   5.7238   6.5361   6.7270
     8.0659   8.6175   8.6238   9.8514   9.9087  11.2128  11.9039  12.0840
    13.1930  13.3142  14.5430  18.4411  19.8952  21.5805  22.9073  25.4350

          k = 0.1875 0.1875-0.0625     band energies (ev):

    -8.6238  -7.8200   3.7524   5.4601   5.7148   6.3985   7.0477   7.1691
     8.1795   8.3516   8.5640   9.5326   9.9019  11.3834  11.6507  11.8953
    13.0844  13.2866  13.5435  16.5619  20.5681  23.6037  24.5316  25.0620

          k = 0.3750 0.1250-0.1250     band energies (ev):

    -8.3740  -7.7993   4.0820   5.1613   5.5512   5.8440   6.5978   6.9259
     8.1317   8.5500   8.6906   9.5407   9.6865  11.5088  11.6484  12.0681
    12.8085  13.3775  14.9313  17.4458  20.7774  22.2039  23.3633  25.3887

          k =-0.9375 0.5625 0.3125     band energies (ev):

    -8.0405  -7.7180   4.1870   4.4844   5.4601   5.6394   6.2876   6.5796
     8.0545   8.6836   8.8191   9.3848   9.7143  11.4436  11.8495  12.3223
    12.9265  13.4146  16.5847  18.2676  20.5450  21.3815  22.3339  23.0016

          k =-0.7500 0.5000 0.2500     band energies (ev):

    -7.7787  -7.6702   3.9162   4.3560   5.2977   5.6711   6.0828   6.1965
     8.0352   8.6643   8.8330   9.6760   9.7910  11.3033  12.1155  12.3897
    13.3115  13.4039  17.7687  18.1045  19.9383  20.9531  21.9079  22.1369

          k =-0.5625 0.4375 0.1875     band energies (ev):

    -7.7927  -7.6587   3.8550   4.6939   5.3436   5.6253   5.8042   6.0621
     8.1077   8.6684   8.8320   9.7345   9.8060  11.2658  12.1287  12.3949
    13.1853  13.6744  16.9957  18.5565  20.4770  20.6175  21.4466  22.8162

          k =-0.3750 0.3750 0.1250     band energies (ev):

    -8.1048  -7.6529   4.4634   4.6052   5.2013   5.7236   6.0190   6.2936
     8.1795   8.6877   8.7434   9.6276   9.8857  11.3643  11.8613  12.3011
    13.0982  13.5561  15.6708  18.9736  20.2217  21.1734  21.8517  24.1081

          k = 0.3125 0.3125-0.1875     band energies (ev):

    -8.2311  -7.8287   4.2490   4.7578   5.6597   5.8558   6.5182   6.5625
     8.0234   8.5849   8.5965   9.8291   9.8900  11.2510  11.9221  12.0736
    13.0989  13.3313  14.9990  17.4663  20.9305  22.0630  22.4405  25.5819

          k =-1.0000 0.7500 0.2500     band energies (ev):

    -7.9832  -7.7781   4.1487   4.3758   5.7118   5.8090   6.0582   6.4760
     8.1358   8.5232   8.7310   9.5648   9.9242  11.4176  11.8624  12.3035
    13.2078  13.3012  16.1707  17.8112  20.7792  21.3601  21.9778  24.1426

          k =-0.8125 0.6875 0.1875     band energies (ev):

    -7.7651  -7.6856   4.1028   4.3536   5.3009   5.4985   5.8796   6.2376
     8.2343   8.6130   8.6991   9.7235   9.8728  11.6795  11.8141  12.3640
    13.2585  13.3823  17.6135  18.4657  20.0614  20.6804  21.5120  22.3169

          k =-0.6250 0.6250 0.1250     band energies (ev):

    -7.6689  -7.6524   4.0976   4.5886   5.1981   5.2637   5.7340   5.9197
     8.2622   8.7240   8.7645   9.6589   9.8263  11.6864  12.0385  12.2156
    13.2490  13.5718  18.5111  18.8413  20.0032  20.3229  21.1258  21.4761

          k =-0.4375 0.5625 0.0625     band energies (ev):

    -7.8226  -7.6313   4.1160   4.8723   5.2025   5.5008   5.6918   5.8297
     8.2848   8.7198   8.8289   9.5121   9.7710  11.6978  11.7803  12.3665
    13.0807  13.6733  17.3119  19.3323  20.4881  20.8948  21.1671  21.9679

          k =-0.5625-0.5625 0.6875     band energies (ev):

    -7.8420  -7.7878   3.6281   4.3867   5.6213   5.6923   6.6256   6.7494
     7.6571   8.6636   8.6787   9.6406   9.8161  11.2446  12.1420  12.3050
    13.4045  13.6060  15.9489  17.4247  20.4873  20.8508  22.7849  24.4191

          k =-0.3750-0.6250 0.6250     band energies (ev):

    -7.7266  -7.7191   3.5268   4.4709   5.4384   5.6586   6.0971   6.6139
     7.9041   8.6422   8.6985   9.7261   9.8430  11.3714  12.1149  12.3862
    13.4138  13.5734  16.7490  17.6935  20.2437  20.5629  22.2132  23.3791

          k =-0.1875-0.6875 0.5625     band energies (ev):

    -7.6702  -7.6499   3.9691   4.6968   5.1128   5.2639   5.7028   6.1052
     8.2416   8.7073   8.7165   9.7190   9.8621  11.6861  12.0454  12.2142
    13.2870  13.5525  18.2097  18.7184  20.0578  20.3668  20.8889  21.8865

          k = 0.0000-0.7500 0.5000     band energies (ev):

    -7.6655  -7.6574   4.3986   4.4172   5.1517   5.3783   5.6314   5.7650
     8.2799   8.7350   8.8508   9.5760   9.7796  11.6892  12.0235  12.2157
    13.2900  13.4906  18.9488  19.1731  20.0320  20.5425  20.7620  21.0020

          k =-0.4375-0.4375 0.5625     band energies (ev):

    -7.7272  -7.7154   3.3091   4.4772   5.5102   5.5499   6.5959   6.7760
     7.5649   8.6284   8.7557   9.7061   9.8219  11.1816  12.2368  12.4491
    13.6234  13.6721  16.0957  17.4238  20.3549  20.4436  22.6875  24.1022

          k =-0.2500-0.5000 0.5000     band energies (ev):

    -7.7746  -7.6745   3.6477   4.6334   5.4868   5.5946   5.9946   6.1815
     8.0619   8.6514   8.7576   9.7458   9.8298  11.3101  12.1257  12.3918
    13.2657  13.7467  16.6153  18.1342  20.4088  20.5373  21.8608  23.3603

          k =-0.3125-0.3125 0.4375     band energies (ev):

    -7.9554  -7.6768   3.9320   4.6113   5.3874   5.7348   5.9549   6.5120
     7.9097   8.6585   8.7485   9.9102   9.9336  11.0807  12.1456  12.3265
    13.3789  13.5562  15.7451  18.1954  20.3924  21.0296  21.5288  24.8880

          k = 0.1250 0.1250 0.1250     band energies (ev):

    -8.7041  -7.9055   3.7194   5.6453   5.6453   6.7571   7.4127   7.4127
     8.1774   8.1774   8.3076   9.7781   9.7781  11.4829  11.4829  11.7589
    12.8849  13.4019  13.4019  15.6378  20.7685  25.0109  25.0344  25.0344

          k = 0.3125 0.0625 0.0625     band energies (ev):

    -8.5419  -7.9173   3.9810   5.4806   5.6499   6.1436   7.0556   7.2152
     8.0766   8.4812   8.6634   9.5294   9.5475  11.5011  11.5919  11.8562
    12.6888  13.5211  14.2407  16.2555  20.9728  23.6282  24.4760  25.5568

          k =-1.0000 0.5000 0.5000     band energies (ev):

    -8.2274  -7.8307   4.1143   4.8010   5.6184   5.6466   6.9488   7.0025
     7.8223   8.7112   8.9529   9.1075   9.4130  11.3931  11.8799  12.1223
    12.5611  13.5904  15.9696  17.2701  21.2867  21.6342  23.8092  23.8740

          k =-0.8125 0.4375 0.4375     band energies (ev):

    -7.9153  -7.7133   3.8056   4.3505   5.4856   5.5955   6.6467   6.7983
     7.6646   8.6541   8.8546   9.5129   9.6325  11.2209  12.1294  12.3403
    13.0323  13.5893  17.1499  17.5057  20.2043  21.4960  22.2946  22.9934

          k =-0.6250 0.3750 0.3750     band energies (ev):

    -7.7317  -7.7140   3.5225   4.4747   5.4323   5.6014   6.1926   6.6617
     7.7282   8.6341   8.8192   9.8018   9.8410  11.0927  12.2321  12.4511
    13.5008  13.5103  16.7351  17.6980  20.2684  20.5315  22.2419  23.3564

          k = 0.2500 0.2500 0.0000     band energies (ev):

    -8.4850  -7.9830   4.1474   5.4318   5.8390   6.0639   6.8434   6.8983
     8.1746   8.3404   8.6862   9.4748  10.0324  11.3865  11.6418  11.8515
    13.0202  13.2403  14.1884  16.1722  21.2240  23.7016  24.2200  25.5151

          k =-1.0625 0.6875 0.4375     band energies (ev):

    -8.2483  -7.9375   4.2724   4.8730   5.7302   6.0202   6.4841   6.7675
     8.1630   8.4871   8.7980   9.3108   9.7570  11.5260  11.6427  12.0824
    12.7423  13.3359  15.5466  16.8474  21.6498  22.4291  23.0264  24.3997

          k =-0.8750 0.6250 0.3750     band energies (ev):

    -7.9612  -7.7993   4.0772   4.3928   5.5801   5.7724   6.2549   6.6953
     8.0142   8.5925   8.7749   9.4447   9.7301  11.4642  11.8538  12.3211
    12.9257  13.4174  16.9513  17.4619  20.7237  21.8546  22.2323  22.8452

          k =-0.6875 0.5625 0.3125     band energies (ev):

    -7.7544  -7.6922   3.6606   4.4093   5.3772   5.6743   6.1177   6.4673
     7.9528   8.6566   8.7436   9.7518   9.7618  11.3497  12.1143  12.3866
    13.3404  13.5080  17.3143  17.7171  20.1107  20.7068  22.1741  22.7716

          k =-0.6250-0.6250 0.8750     band energies (ev):

    -8.1049  -7.9610   4.3229   4.5366   5.8035   5.9174   6.5550   6.6695
     7.9496   8.6092   8.6631   9.5790   9.7244  11.3250  11.9112  12.0783
    12.8575  13.4505  15.6749  16.9682  21.6340  21.9596  22.8593  24.1371

          k =-0.4375-0.6875 0.8125     band energies (ev):

    -7.8925  -7.8691   4.0657   4.3505   5.6587   5.8583   6.1818   6.6242
     8.0647   8.5120   8.7557   9.4795   9.8465  11.4536  11.8588  12.3112
    13.0459  13.3633  16.7251  17.3677  20.8660  21.4474  22.4125  23.2499

          k =-0.2500-0.7500 0.7500     band energies (ev):

    -7.7286  -7.7214   4.1842   4.1893   5.3381   5.4627   5.9291   6.3078
     8.2185   8.5756   8.6954   9.7248   9.9298  11.6789  11.8206  12.3633
    13.2947  13.3259  17.7735  18.1719  20.0432  20.6065  21.7757  22.1522

          k =-0.5000-0.5000 0.7500     band energies (ev):

    -7.8544  -7.7743   3.6485   4.3498   5.5900   5.6346   6.8204   6.8226
     7.5609   8.6605   8.7349   9.5746   9.6535  11.2662  12.1354  12.3152
    13.1775  13.6416  16.6180  17.2696  20.3985  21.0792  23.0796  23.3679

          k = 0.1875 0.1875 0.1875     band energies (ev):

    -8.5349  -8.1036   4.2857   5.7865   5.7865   5.9156   7.0889   7.0889
     8.1934   8.1934   8.3219  10.0570  10.0570  11.4548  11.4548  11.6592
    13.2853  13.2853  13.7197  15.2322  21.4324  23.7113  25.7433  25.7433

          k =-1.1250 0.6250 0.6250     band energies (ev):

    -8.3743  -8.1044   4.4600   5.1390   5.7754   6.2404   6.6132   6.9739
     8.1111   8.4079   8.6760   9.5898   9.7919  11.4732  11.5988  11.8322
    12.7225  13.4140  14.9258  15.6763  21.7950  23.3641  24.1110  25.7417

          k =-0.9375 0.5625 0.5625     band energies (ev):

    -8.1010  -7.9642   4.2285   4.5985   5.7153   5.8583   6.7982   6.8318
     7.8621   8.6596   8.7898   9.3033   9.5303  11.3832  11.8941  12.1025
    12.6465  13.5554  16.4377  16.4974  21.5238  22.7365  22.8591  23.3792

          k =-0.6875-0.6875 1.0625     band energies (ev):

    -8.3046  -8.1777   4.6388   5.0023   5.8720   6.2012   6.5671   6.8048
     8.1473   8.3625   8.6954   9.5440   9.9851  11.4233  11.6205  11.8261
    12.8610  13.2956  14.9482  15.6032  22.1516  22.8657  24.6930  24.9509

          k =-0.5000-0.7500 1.0000     band energies (ev):

    -8.1007  -8.0901   4.4376   4.6685   5.8169   6.1874   6.4126   6.6074
     8.1895   8.4641   8.8955   9.1557   9.7885  11.5385  11.6336  12.0880
    12.7446  13.3029  16.1699  16.2269  22.3738  22.6058  23.0076  23.2642

          k =-0.2500-0.2500-0.2500     band energies (ev):

    -8.3374  -8.3130   4.8388   5.2635   5.8624   5.8624   6.9476   6.9476
     8.1999   8.1999   8.3240  10.1650  10.1650  11.4430  11.4430  11.6194
    13.2337  13.2337  14.3908  14.7138  22.2131  22.7090  26.4896  26.4896

     the Fermi energy is    11.6496 ev

     Writing output data file feo.save
 
     init_run     :      2.34s CPU      2.48s WALL (       1 calls)
     electrons    :     27.59s CPU     28.77s WALL (       1 calls)

     Called by init_run:
     wfcinit      :      0.09s CPU      0.11s WALL (       1 calls)
     potinit      :      0.40s CPU      0.47s WALL (       1 calls)

     Called by electrons:
     c_bands      :     27.59s CPU     28.71s WALL (       1 calls)
     v_of_rho     :      0.28s CPU      0.33s WALL (       1 calls)
     newd         :      0.18s CPU      0.19s WALL (       1 calls)

     Called by c_bands:
     init_us_2    :      0.04s CPU      0.05s WALL (      66 calls)
     cegterg      :     24.47s CPU     25.45s WALL (      35 calls)

     Called by *egterg:
     h_psi        :     21.64s CPU     22.57s WALL (     605 calls)
     s_psi        :      0.44s CPU      0.42s WALL (     638 calls)
     g_psi        :      0.10s CPU      0.11s WALL (     537 calls)
     cdiaghg      :      2.11s CPU      2.08s WALL (     570 calls)

     Called by h_psi:
     add_vuspsi   :      0.42s CPU      0.41s WALL (     605 calls)

     General routines
     calbec       :      0.62s CPU      0.65s WALL (    1243 calls)
     fft          :      0.12s CPU      0.14s WALL (      23 calls)
     ffts         :      0.00s CPU      0.00s WALL (       2 calls)
     fftw         :     17.24s CPU     18.17s WALL (   16860 calls)
     interpolate  :      0.02s CPU      0.02s WALL (       2 calls)
     davcio       :      0.00s CPU      0.02s WALL (     132 calls)
 
     Parallel routines
     fft_scatter  :      0.91s CPU      1.25s WALL (   16885 calls)
     EXX routines
 
     PWSCF        :    30.35s CPU        31.78s WALL

 
   This run was terminated on:  16:20:22  15Jun2012            

=------------------------------------------------------------------------------=
   JOB DONE.
=------------------------------------------------------------------------------=
