
     Program PROJWFC v.5.0      starts on 15Jun2012 at 16:20:22 

     This program is part of the open-source Quantum ESPRESSO suite
     for quantum simulation of materials; please cite
         "P. Giannozzi et al., J. Phys.:Condens. Matter 21 395502 (2009);
          URL http://www.quantum-espresso.org", 
     in publications or presentations arising from this work. More details at
     http://www.quantum-espresso.org/quote.php

     Parallel version (MPI), running on     4 processors
     K-points division:     npool     =    4

   Info: using nr1, nr2, nr3 values from input

   Info: using nr1s, nr2s, nr3s values from input

     IMPORTANT: XC functional enforced from input :
     Exchange-correlation      =  SLA  PW   PBE  PBE ( 1 4 3 4 0)
     EXX-fraction              =        0.00
     Any further DFT definition will be discarded
     Please, verify this is what you really want

               file O.pbe-rrkjus.UPF: wavefunction(s)  2S renormalized
               file Fe.pbe-nd-rrkjus.UPF: wavefunction(s)  4S renormalized
               file Fe.pbe-nd-rrkjus.UPF: wavefunction(s)  4S renormalized
 
     G-vector sticks info
     --------------------
     sticks:   dense  smooth     PW     G-vecs:    dense   smooth      PW
     Sum        1061     539    179                17255     6111    1219
 

     Check: negative/imaginary core charge=   -0.000003    0.000000

     Gaussian broadening (read from file): ngauss,degauss=   1    0.020000


     Calling projwave .... 

     Atomic states used for projection
     (read from pseudopotential files):

     state #   1: atom   1 (O  ), wfc  1 (l=0 m= 1)
     state #   2: atom   1 (O  ), wfc  2 (l=1 m= 1)
     state #   3: atom   1 (O  ), wfc  2 (l=1 m= 2)
     state #   4: atom   1 (O  ), wfc  2 (l=1 m= 3)
     state #   5: atom   2 (O  ), wfc  1 (l=0 m= 1)
     state #   6: atom   2 (O  ), wfc  2 (l=1 m= 1)
     state #   7: atom   2 (O  ), wfc  2 (l=1 m= 2)
     state #   8: atom   2 (O  ), wfc  2 (l=1 m= 3)
     state #   9: atom   3 (Fe1), wfc  1 (l=0 m= 1)
     state #  10: atom   3 (Fe1), wfc  2 (l=2 m= 1)
     state #  11: atom   3 (Fe1), wfc  2 (l=2 m= 2)
     state #  12: atom   3 (Fe1), wfc  2 (l=2 m= 3)
     state #  13: atom   3 (Fe1), wfc  2 (l=2 m= 4)
     state #  14: atom   3 (Fe1), wfc  2 (l=2 m= 5)
     state #  15: atom   4 (Fe2), wfc  1 (l=0 m= 1)
     state #  16: atom   4 (Fe2), wfc  2 (l=2 m= 1)
     state #  17: atom   4 (Fe2), wfc  2 (l=2 m= 2)
     state #  18: atom   4 (Fe2), wfc  2 (l=2 m= 3)
     state #  19: atom   4 (Fe2), wfc  2 (l=2 m= 4)
     state #  20: atom   4 (Fe2), wfc  2 (l=2 m= 5)

 k =   0.0000000000  0.0000000000  0.0000000000
==== e(   1) =    -8.85110 eV ==== 
     psi = 0.299*[#   1]+0.299*[#   5]+0.204*[#   9]+0.198*[#  15]+
    |psi|^2 = 1.000
==== e(   2) =    -7.71664 eV ==== 
     psi = 0.497*[#   1]+0.497*[#   5]+
    |psi|^2 = 0.993
==== e(   3) =     3.22321 eV ==== 
     psi = 0.102*[#   2]+0.102*[#   3]+0.102*[#   4]+0.102*[#   6]+0.102*[#   7]+
          +0.102*[#   8]+0.080*[#   9]+0.076*[#  15]+0.053*[#  11]+0.053*[#  12]+
          +0.053*[#  14]+0.024*[#  17]+0.024*[#  18]+0.024*[#  20]+
    |psi|^2 = 1.000
==== e(   4) =     5.49629 eV ==== 
     psi = 0.185*[#  10]+0.185*[#  13]+0.083*[#   2]+0.083*[#   3]+0.083*[#   4]+
          +0.083*[#   6]+0.083*[#   7]+0.083*[#   8]+0.033*[#  16]+0.033*[#  19]+
          +0.018*[#  11]+0.018*[#  12]+0.018*[#  14]+0.003*[#  17]+0.003*[#  18]+
          +0.003*[#  20]+
    |psi|^2 = 1.000
==== e(   5) =     5.49629 eV ==== 
     psi = 0.185*[#  10]+0.185*[#  13]+0.083*[#   2]+0.083*[#   3]+0.083*[#   4]+
          +0.083*[#   6]+0.083*[#   7]+0.083*[#   8]+0.033*[#  16]+0.033*[#  19]+
          +0.018*[#  11]+0.018*[#  12]+0.018*[#  14]+0.003*[#  17]+0.003*[#  18]+
          +0.003*[#  20]+
    |psi|^2 = 1.000
==== e(   6) =     7.94846 eV ==== 
     psi = 0.166*[#   2]+0.166*[#   3]+0.166*[#   4]+0.166*[#   6]+0.166*[#   7]+
          +0.166*[#   8]+
    |psi|^2 = 0.994
==== e(   7) =     7.95404 eV ==== 
     psi = 0.166*[#   2]+0.166*[#   3]+0.166*[#   4]+0.166*[#   6]+0.166*[#   7]+
          +0.166*[#   8]+
    |psi|^2 = 0.994
==== e(   8) =     7.95404 eV ==== 
     psi = 0.166*[#   2]+0.166*[#   3]+0.166*[#   4]+0.166*[#   6]+0.166*[#   7]+
          +0.166*[#   8]+
    |psi|^2 = 0.994
==== e(   9) =     8.10435 eV ==== 
     psi = 0.275*[#  11]+0.275*[#  12]+0.275*[#  14]+0.019*[#   9]+0.018*[#  17]+
          +0.018*[#  18]+0.018*[#  20]+0.015*[#  15]+0.014*[#   2]+0.014*[#   3]+
          +0.014*[#   4]+0.014*[#   6]+0.014*[#   7]+0.014*[#   8]+
    |psi|^2 = 0.998
==== e(  10) =     8.14837 eV ==== 
     psi = 0.302*[#  11]+0.302*[#  12]+0.302*[#  14]+0.035*[#  10]+0.035*[#  13]+
          +0.006*[#  17]+0.006*[#  18]+0.006*[#  20]+
    |psi|^2 = 0.999
==== e(  11) =     8.14837 eV ==== 
     psi = 0.302*[#  11]+0.302*[#  12]+0.302*[#  14]+0.035*[#  10]+0.035*[#  13]+
          +0.006*[#  17]+0.006*[#  18]+0.006*[#  20]+
    |psi|^2 = 0.999
==== e(  12) =     9.27384 eV ==== 
     psi = 0.259*[#  10]+0.259*[#  13]+0.098*[#  16]+0.098*[#  19]+0.039*[#   2]+
          +0.039*[#   3]+0.039*[#   4]+0.039*[#   6]+0.039*[#   7]+0.039*[#   8]+
          +0.009*[#  17]+0.009*[#  18]+0.009*[#  20]+0.007*[#  11]+0.007*[#  12]+
          +0.007*[#  14]+
    |psi|^2 = 0.995
==== e(  13) =     9.27384 eV ==== 
     psi = 0.259*[#  10]+0.259*[#  13]+0.098*[#  16]+0.098*[#  19]+0.039*[#   2]+
          +0.039*[#   3]+0.039*[#   4]+0.039*[#   6]+0.039*[#   7]+0.039*[#   8]+
          +0.009*[#  17]+0.009*[#  18]+0.009*[#  20]+0.007*[#  11]+0.007*[#  12]+
          +0.007*[#  14]+
    |psi|^2 = 0.995
==== e(  14) =    11.52319 eV ==== 
     psi = 0.310*[#  17]+0.310*[#  18]+0.310*[#  20]+0.019*[#  16]+0.019*[#  19]+
          +0.006*[#  11]+0.006*[#  12]+0.006*[#  14]+0.002*[#   2]+0.002*[#   3]+
          +0.002*[#   4]+0.002*[#   6]+0.002*[#   7]+0.002*[#   8]+
    |psi|^2 = 0.998
==== e(  15) =    11.52319 eV ==== 
     psi = 0.310*[#  17]+0.310*[#  18]+0.310*[#  20]+0.019*[#  16]+0.019*[#  19]+
          +0.006*[#  11]+0.006*[#  12]+0.006*[#  14]+0.002*[#   2]+0.002*[#   3]+
          +0.002*[#   4]+0.002*[#   6]+0.002*[#   7]+0.002*[#   8]+
    |psi|^2 = 0.998
==== e(  16) =    11.86242 eV ==== 
     psi = 0.221*[#   9]+0.145*[#  17]+0.145*[#  18]+0.145*[#  20]+0.102*[#   1]+
          +0.102*[#   5]+0.095*[#  15]+0.006*[#   2]+0.006*[#   3]+0.006*[#   4]+
          +0.006*[#   6]+0.006*[#   7]+0.006*[#   8]+0.002*[#  11]+0.002*[#  12]+
          +0.002*[#  14]+
    |psi|^2 = 0.997
==== e(  17) =    11.94500 eV ==== 
     psi = 0.193*[#  15]+0.145*[#  17]+0.145*[#  18]+0.145*[#  20]+0.107*[#   9]+
          +0.098*[#   1]+0.098*[#   5]+0.010*[#   2]+0.010*[#   3]+0.010*[#   4]+
          +0.010*[#   6]+0.010*[#   7]+0.010*[#   8]+0.002*[#  11]+0.002*[#  12]+
          +0.002*[#  14]+
    |psi|^2 = 0.997
==== e(  18) =    13.55544 eV ==== 
     psi = 0.348*[#  16]+0.348*[#  19]+0.041*[#   2]+0.041*[#   3]+0.041*[#   4]+
          +0.041*[#   6]+0.041*[#   7]+0.041*[#   8]+0.019*[#  10]+0.019*[#  13]+
          +0.004*[#  17]+0.004*[#  18]+0.004*[#  20]+
    |psi|^2 = 0.994
==== e(  19) =    13.55544 eV ==== 
     psi = 0.348*[#  16]+0.348*[#  19]+0.041*[#   2]+0.041*[#   3]+0.041*[#   4]+
          +0.041*[#   6]+0.041*[#   7]+0.041*[#   8]+0.019*[#  10]+0.019*[#  13]+
          +0.004*[#  17]+0.004*[#  18]+0.004*[#  20]+
    |psi|^2 = 0.994
==== e(  20) =    15.82453 eV ==== 
     psi = 0.003*[#   1]+0.003*[#   5]+
    |psi|^2 = 0.005
==== e(  21) =    20.33637 eV ==== 
     psi = 0.417*[#  15]+0.365*[#   9]+0.034*[#   2]+0.034*[#   3]+0.034*[#   4]+
          +0.034*[#   6]+0.034*[#   7]+0.034*[#   8]+
    |psi|^2 = 0.989
==== e(  22) =    24.41399 eV ==== 
     psi = 
    |psi|^2 = 0.000
==== e(  23) =    24.41399 eV ==== 
     psi = 
    |psi|^2 = 0.000
==== e(  24) =    26.82631 eV ==== 
     psi = 
    |psi|^2 = 0.000

 k =   0.1875000000 -0.0625000000 -0.0625000000
==== e(   1) =    -8.71682 eV ==== 
     psi = 0.314*[#   1]+0.314*[#   5]+0.188*[#   9]+0.182*[#  15]+
    |psi|^2 = 1.000
==== e(   2) =    -7.70356 eV ==== 
     psi = 0.485*[#   1]+0.485*[#   5]+0.006*[#  10]+0.006*[#  13]+0.005*[#  16]+
          +0.005*[#  19]+0.001*[#   9]+0.001*[#  15]+
    |psi|^2 = 0.995
==== e(   3) =     3.47465 eV ==== 
     psi = 0.105*[#   2]+0.105*[#   3]+0.105*[#   4]+0.105*[#   6]+0.105*[#   7]+
          +0.105*[#   8]+0.075*[#   9]+0.070*[#  15]+0.052*[#  11]+0.052*[#  12]+
          +0.052*[#  14]+0.023*[#  17]+0.023*[#  18]+0.023*[#  20]+
    |psi|^2 = 0.999
==== e(   4) =     5.41343 eV ==== 
     psi = 0.157*[#  10]+0.157*[#  13]+0.092*[#   2]+0.092*[#   3]+0.092*[#   4]+
          +0.092*[#   6]+0.092*[#   7]+0.092*[#   8]+0.023*[#  11]+0.023*[#  12]+
          +0.023*[#  14]+0.019*[#  16]+0.019*[#  19]+0.006*[#  17]+0.006*[#  18]+
          +0.006*[#  20]+
    |psi|^2 = 0.991
==== e(   5) =     5.54765 eV ==== 
     psi = 0.187*[#  10]+0.187*[#  13]+0.086*[#   2]+0.086*[#   3]+0.086*[#   4]+
          +0.086*[#   6]+0.086*[#   7]+0.086*[#   8]+0.032*[#  16]+0.032*[#  19]+
          +0.012*[#  11]+0.012*[#  12]+0.012*[#  14]+0.003*[#  17]+0.003*[#  18]+
          +0.003*[#  20]+
    |psi|^2 = 0.999
==== e(   6) =     6.72563 eV ==== 
     psi = 0.115*[#   2]+0.115*[#   3]+0.115*[#   4]+0.115*[#   6]+0.115*[#   7]+
          +0.115*[#   8]+0.036*[#   9]+0.032*[#  11]+0.032*[#  12]+0.032*[#  14]+
          +0.032*[#  10]+0.032*[#  13]+0.025*[#  16]+0.025*[#  19]+0.019*[#  15]+
          +0.018*[#   1]+0.018*[#   5]+0.002*[#  17]+0.002*[#  18]+0.002*[#  20]+
    |psi|^2 = 0.996
==== e(   7) =     7.40918 eV ==== 
     psi = 0.109*[#   2]+0.109*[#   3]+0.109*[#   4]+0.109*[#   6]+0.109*[#   7]+
          +0.109*[#   8]+0.086*[#  11]+0.086*[#  12]+0.086*[#  14]+0.024*[#  10]+
          +0.024*[#  13]+0.009*[#  16]+0.009*[#  19]+0.006*[#  17]+0.006*[#  18]+
          +0.006*[#  20]+
    |psi|^2 = 0.996
==== e(   8) =     7.45749 eV ==== 
     psi = 0.131*[#   2]+0.131*[#   3]+0.131*[#   4]+0.131*[#   6]+0.131*[#   7]+
          +0.131*[#   8]+0.034*[#  11]+0.034*[#  12]+0.034*[#  14]+0.022*[#  16]+
          +0.022*[#  19]+0.013*[#  10]+0.013*[#  13]+0.011*[#  17]+0.011*[#  18]+
          +0.011*[#  20]+
    |psi|^2 = 0.994
==== e(   9) =     8.08879 eV ==== 
     psi = 0.284*[#  11]+0.284*[#  12]+0.284*[#  14]+0.014*[#   9]+0.013*[#  17]+
          +0.013*[#  18]+0.013*[#  20]+0.011*[#   2]+0.011*[#   3]+0.011*[#   4]+
          +0.011*[#   6]+0.011*[#   7]+0.011*[#   8]+0.010*[#  10]+0.010*[#  13]+
          +0.008*[#  15]+
    |psi|^2 = 0.998
==== e(  10) =     8.46223 eV ==== 
     psi = 0.226*[#  11]+0.226*[#  12]+0.226*[#  14]+0.038*[#   2]+0.038*[#   3]+
          +0.038*[#   4]+0.038*[#   6]+0.038*[#   7]+0.038*[#   8]+0.025*[#  10]+
          +0.025*[#  13]+0.022*[#  15]+0.006*[#   1]+0.006*[#   5]+0.002*[#  17]+
          +0.002*[#  18]+0.002*[#  20]+
    |psi|^2 = 0.995
==== e(  11) =     8.52747 eV ==== 
     psi = 0.231*[#  11]+0.231*[#  12]+0.231*[#  14]+0.047*[#   2]+0.047*[#   3]+
          +0.047*[#   4]+0.047*[#   6]+0.047*[#   7]+0.047*[#   8]+0.008*[#  16]+
          +0.008*[#  19]+
    |psi|^2 = 0.996
==== e(  12) =     9.37656 eV ==== 
     psi = 0.269*[#  10]+0.269*[#  13]+0.076*[#  16]+0.076*[#  19]+0.046*[#   2]+
          +0.046*[#   3]+0.046*[#   4]+0.046*[#   6]+0.046*[#   7]+0.046*[#   8]+
          +0.008*[#  17]+0.008*[#  18]+0.008*[#  20]+
    |psi|^2 = 0.994
==== e(  13) =     9.63069 eV ==== 
     psi = 0.244*[#  10]+0.244*[#  13]+0.064*[#   2]+0.064*[#   3]+0.064*[#   4]+
          +0.064*[#   6]+0.064*[#   7]+0.064*[#   8]+0.021*[#  16]+0.021*[#  19]+
          +0.009*[#  15]+0.009*[#  17]+0.009*[#  18]+0.009*[#  20]+0.009*[#   1]+
          +0.009*[#   5]+0.006*[#  11]+0.006*[#  12]+0.006*[#  14]+0.004*[#   9]+
    |psi|^2 = 0.988
==== e(  14) =    11.45427 eV ==== 
     psi = 0.294*[#  17]+0.294*[#  18]+0.294*[#  20]+0.027*[#  16]+0.027*[#  19]+
          +0.006*[#  15]+0.005*[#   2]+0.005*[#   3]+0.005*[#   4]+0.005*[#   6]+
          +0.005*[#   7]+0.005*[#   8]+0.005*[#  11]+0.005*[#  12]+0.005*[#  14]+
          +0.004*[#   1]+0.004*[#   5]+0.003*[#   9]+
    |psi|^2 = 0.997
==== e(  15) =    11.62727 eV ==== 
     psi = 0.312*[#  17]+0.312*[#  18]+0.312*[#  20]+0.013*[#  16]+0.013*[#  19]+
          +0.004*[#   2]+0.004*[#   3]+0.004*[#   4]+0.004*[#   6]+0.004*[#   7]+
          +0.004*[#   8]+0.003*[#  11]+0.003*[#  12]+0.003*[#  14]+
    |psi|^2 = 0.998
==== e(  16) =    11.91539 eV ==== 
     psi = 0.288*[#  17]+0.288*[#  18]+0.288*[#  20]+0.029*[#   9]+0.014*[#   2]+
          +0.014*[#   3]+0.014*[#   4]+0.014*[#   6]+0.014*[#   7]+0.014*[#   8]+
          +0.004*[#   1]+0.004*[#   5]+0.003*[#  11]+0.003*[#  12]+0.003*[#  14]+
          +0.003*[#  16]+0.003*[#  19]+
    |psi|^2 = 0.998
==== e(  17) =    12.76795 eV ==== 
     psi = 0.243*[#   9]+0.192*[#  15]+0.127*[#   1]+0.127*[#   5]+0.055*[#  16]+
          +0.055*[#  19]+0.024*[#   2]+0.024*[#   3]+0.024*[#   4]+0.024*[#   6]+
          +0.024*[#   7]+0.024*[#   8]+0.012*[#  17]+0.012*[#  18]+0.012*[#  20]+
          +0.007*[#  10]+0.007*[#  13]+
    |psi|^2 = 0.993
==== e(  18) =    13.35558 eV ==== 
     psi = 0.318*[#  16]+0.318*[#  19]+0.056*[#  15]+0.035*[#   9]+0.030*[#   2]+
          +0.030*[#   3]+0.030*[#   4]+0.030*[#   6]+0.030*[#   7]+0.030*[#   8]+
          +0.027*[#   1]+0.027*[#   5]+0.004*[#  17]+0.004*[#  18]+0.004*[#  20]+
          +0.004*[#  10]+0.004*[#  13]+
    |psi|^2 = 0.979
==== e(  19) =    13.51239 eV ==== 
     psi = 0.361*[#  16]+0.361*[#  19]+0.038*[#   2]+0.038*[#   3]+0.038*[#   4]+
          +0.038*[#   6]+0.038*[#   7]+0.038*[#   8]+0.017*[#  10]+0.017*[#  13]+
          +0.003*[#  17]+0.003*[#  18]+0.003*[#  20]+
    |psi|^2 = 0.992
==== e(  20) =    16.75901 eV ==== 
     psi = 0.013*[#   9]+0.013*[#  15]+0.005*[#   2]+0.005*[#   3]+0.005*[#   4]+
          +0.005*[#   6]+0.005*[#   7]+0.005*[#   8]+0.004*[#  16]+0.004*[#  19]+
          +0.001*[#   1]+0.001*[#   5]+
    |psi|^2 = 0.064
==== e(  21) =    20.20828 eV ==== 
     psi = 0.411*[#  15]+0.354*[#   9]+0.031*[#   2]+0.031*[#   3]+0.031*[#   4]+
          +0.031*[#   6]+0.031*[#   7]+0.031*[#   8]+
    |psi|^2 = 0.954
==== e(  22) =    23.23194 eV ==== 
     psi = 
    |psi|^2 = 0.008
==== e(  23) =    24.76897 eV ==== 
     psi = 
    |psi|^2 = 0.004
==== e(  24) =    25.33719 eV ==== 
     psi = 
    |psi|^2 = 0.003

 k =   0.3750000000 -0.1250000000 -0.1250000000
==== e(   1) =    -8.37401 eV ==== 
     psi = 0.358*[#   1]+0.358*[#   5]+0.138*[#   9]+0.135*[#  15]+0.002*[#  10]+
          +0.002*[#  13]+0.002*[#  16]+0.002*[#  19]+
    |psi|^2 = 1.000
==== e(   2) =    -7.66837 eV ==== 
     psi = 0.467*[#   1]+0.467*[#   5]+0.016*[#  10]+0.016*[#  13]+0.013*[#  16]+
          +0.013*[#  19]+0.002*[#   9]+0.002*[#  15]+
    |psi|^2 = 0.997
==== e(   3) =     4.08385 eV ==== 
     psi = 0.110*[#   2]+0.110*[#   3]+0.110*[#   4]+0.110*[#   6]+0.110*[#   7]+
          +0.110*[#   8]+0.062*[#  15]+0.054*[#   9]+0.046*[#  11]+0.046*[#  12]+
          +0.046*[#  14]+0.017*[#  17]+0.017*[#  18]+0.017*[#  20]+0.015*[#  10]+
          +0.015*[#  13]+0.003*[#  16]+0.003*[#  19]+
    |psi|^2 = 0.998
==== e(   4) =     5.13503 eV ==== 
     psi = 0.108*[#   2]+0.108*[#   3]+0.108*[#   4]+0.108*[#   6]+0.108*[#   7]+
          +0.108*[#   8]+0.101*[#  10]+0.101*[#  13]+0.026*[#   9]+0.024*[#  15]+
          +0.016*[#  17]+0.016*[#  18]+0.016*[#  20]+0.009*[#   1]+0.009*[#   5]+
          +0.006*[#  11]+0.006*[#  12]+0.006*[#  14]+0.002*[#  16]+0.002*[#  19]+
    |psi|^2 = 0.987
==== e(   5) =     5.27976 eV ==== 
     psi = 0.111*[#   2]+0.111*[#   3]+0.111*[#   4]+0.111*[#   6]+0.111*[#   7]+
          +0.111*[#   8]+0.061*[#  11]+0.061*[#  12]+0.061*[#  14]+0.047*[#   9]+
          +0.024*[#  16]+0.024*[#  19]+0.017*[#  15]+0.014*[#   1]+0.014*[#   5]+
    |psi|^2 = 0.991
==== e(   6) =     5.64899 eV ==== 
     psi = 0.195*[#  10]+0.195*[#  13]+0.092*[#   2]+0.092*[#   3]+0.092*[#   4]+
          +0.092*[#   6]+0.092*[#   7]+0.092*[#   8]+0.025*[#  16]+0.025*[#  19]+
          +0.001*[#  17]+0.001*[#  18]+0.001*[#  20]+
    |psi|^2 = 0.998
==== e(   7) =     6.69289 eV ==== 
     psi = 0.118*[#   2]+0.118*[#   3]+0.118*[#   4]+0.118*[#   6]+0.118*[#   7]+
          +0.118*[#   8]+0.044*[#  10]+0.044*[#  13]+0.026*[#  11]+0.026*[#  12]+
          +0.026*[#  14]+0.024*[#  16]+0.024*[#  19]+0.020*[#  17]+0.020*[#  18]+
          +0.020*[#  20]+0.003*[#  15]+0.003*[#   1]+0.003*[#   5]+
    |psi|^2 = 0.992
==== e(   8) =     6.87178 eV ==== 
     psi = 0.115*[#   2]+0.115*[#   3]+0.115*[#   4]+0.115*[#   6]+0.115*[#   7]+
          +0.115*[#   8]+0.064*[#  11]+0.064*[#  12]+0.064*[#  14]+0.029*[#  16]+
          +0.029*[#  19]+0.018*[#  10]+0.018*[#  13]+0.007*[#  17]+0.007*[#  18]+
          +0.007*[#  20]+
    |psi|^2 = 0.995
==== e(   9) =     8.00795 eV ==== 
     psi = 0.277*[#  11]+0.277*[#  12]+0.277*[#  14]+0.021*[#  10]+0.021*[#  13]+
          +0.014*[#   9]+0.013*[#   2]+0.013*[#   3]+0.013*[#   4]+0.013*[#   6]+
          +0.013*[#   7]+0.013*[#   8]+0.009*[#  17]+0.009*[#  18]+0.009*[#  20]+
          +0.004*[#  15]+0.002*[#   1]+0.002*[#   5]+
    |psi|^2 = 0.996
==== e(  10) =     8.66359 eV ==== 
     psi = 0.259*[#  11]+0.259*[#  12]+0.259*[#  14]+0.025*[#   2]+0.025*[#   3]+
          +0.025*[#   4]+0.025*[#   6]+0.025*[#   7]+0.025*[#   8]+0.018*[#  16]+
          +0.018*[#  19]+0.017*[#  10]+0.017*[#  13]+
    |psi|^2 = 0.996
==== e(  11) =     8.70573 eV ==== 
     psi = 0.231*[#  11]+0.231*[#  12]+0.231*[#  14]+0.037*[#  10]+0.037*[#  13]+
          +0.029*[#   2]+0.029*[#   3]+0.029*[#   4]+0.029*[#   6]+0.029*[#   7]+
          +0.029*[#   8]+0.024*[#  15]+0.009*[#   1]+0.009*[#   5]+0.004*[#   9]+
          +0.001*[#  17]+0.001*[#  18]+0.001*[#  20]+
    |psi|^2 = 0.989
==== e(  12) =     9.65626 eV ==== 
     psi = 0.257*[#  10]+0.257*[#  13]+0.060*[#   2]+0.060*[#   3]+0.060*[#   4]+
          +0.060*[#   6]+0.060*[#   7]+0.060*[#   8]+0.034*[#  16]+0.034*[#  19]+
          +0.009*[#  11]+0.009*[#  12]+0.009*[#  14]+0.008*[#  17]+0.008*[#  18]+
          +0.008*[#  20]+
    |psi|^2 = 0.990
==== e(  13) =     9.67149 eV ==== 
     psi = 0.254*[#  10]+0.254*[#  13]+0.059*[#   2]+0.059*[#   3]+0.059*[#   4]+
          +0.059*[#   6]+0.059*[#   7]+0.059*[#   8]+0.020*[#   1]+0.020*[#   5]+
          +0.018*[#  15]+0.015*[#  11]+0.015*[#  12]+0.015*[#  14]+0.004*[#  16]+
          +0.004*[#  17]+0.004*[#  18]+0.004*[#  19]+0.004*[#  20]+
    |psi|^2 = 0.985
==== e(  14) =    11.27381 eV ==== 
     psi = 0.289*[#  17]+0.289*[#  18]+0.289*[#  20]+0.017*[#  16]+0.017*[#  19]+
          +0.012*[#  15]+0.010*[#   2]+0.010*[#   3]+0.010*[#   4]+0.010*[#   6]+
          +0.010*[#   7]+0.010*[#   8]+0.004*[#  11]+0.004*[#  12]+0.004*[#  14]+
          +0.003*[#   1]+0.003*[#   5]+0.001*[#  10]+0.001*[#  13]+
    |psi|^2 = 0.995
==== e(  15) =    11.88709 eV ==== 
     psi = 0.315*[#  17]+0.315*[#  18]+0.315*[#  20]+0.008*[#   2]+0.008*[#   3]+
          +0.008*[#   4]+0.008*[#   6]+0.008*[#   7]+0.008*[#   8]+0.002*[#  16]+
          +0.002*[#  19]+
    |psi|^2 = 0.999
==== e(  16) =    12.08969 eV ==== 
     psi = 0.291*[#  17]+0.291*[#  18]+0.291*[#  20]+0.020*[#   9]+0.012*[#   2]+
          +0.012*[#   3]+0.012*[#   4]+0.012*[#   6]+0.012*[#   7]+0.012*[#   8]+
          +0.011*[#  16]+0.011*[#  19]+0.004*[#   1]+0.004*[#   5]+0.001*[#  15]+
    |psi|^2 = 0.998
==== e(  17) =    12.91867 eV ==== 
     psi = 0.342*[#  16]+0.342*[#  19]+0.074*[#   9]+0.038*[#   1]+0.038*[#   5]+
          +0.017*[#  17]+0.017*[#  18]+0.017*[#  20]+0.015*[#   2]+0.015*[#   3]+
          +0.015*[#   4]+0.015*[#   6]+0.015*[#   7]+0.015*[#   8]+0.014*[#  15]+
    |psi|^2 = 0.992
==== e(  18) =    13.42764 eV ==== 
     psi = 0.389*[#  16]+0.389*[#  19]+0.031*[#   2]+0.031*[#   3]+0.031*[#   4]+
          +0.031*[#   6]+0.031*[#   7]+0.031*[#   8]+0.010*[#  10]+0.010*[#  13]+
          +0.001*[#  17]+0.001*[#  18]+0.001*[#  20]+
    |psi|^2 = 0.989
==== e(  19) =    14.92696 eV ==== 
     psi = 0.241*[#   9]+0.230*[#  15]+0.069*[#   1]+0.069*[#   5]+0.053*[#  16]+
          +0.053*[#  19]+0.044*[#   2]+0.044*[#   3]+0.044*[#   4]+0.044*[#   6]+
          +0.044*[#   7]+0.044*[#   8]+0.003*[#  10]+0.003*[#  13]+
    |psi|^2 = 0.986
==== e(  20) =    18.50628 eV ==== 
     psi = 0.041*[#   9]+0.040*[#  15]+0.006*[#   2]+0.006*[#   3]+0.006*[#   4]+
          +0.006*[#   6]+0.006*[#   7]+0.006*[#   8]+0.001*[#   1]+0.001*[#   5]+
    |psi|^2 = 0.122
==== e(  21) =    19.95135 eV ==== 
     psi = 0.400*[#  15]+0.330*[#   9]+0.024*[#   2]+0.024*[#   3]+0.024*[#   4]+
          +0.024*[#   6]+0.024*[#   7]+0.024*[#   8]+0.002*[#  16]+0.002*[#  19]+
    |psi|^2 = 0.878
==== e(  22) =    21.35435 eV ==== 
     psi = 0.003*[#   2]+0.003*[#   3]+0.003*[#   4]+0.003*[#   6]+0.003*[#   7]+
          +0.003*[#   8]+0.002*[#  15]+0.002*[#   9]+
    |psi|^2 = 0.026
==== e(  23) =    23.36395 eV ==== 
     psi = 0.005*[#  15]+
    |psi|^2 = 0.015
==== e(  24) =    25.42070 eV ==== 
     psi = 0.002*[#   2]+0.002*[#   3]+0.002*[#   4]+0.002*[#   6]+0.002*[#   7]+
          +0.002*[#   8]+0.001*[#  16]+0.001*[#  19]+
    |psi|^2 = 0.013

 k =   0.5625000000 -0.1875000000 -0.1875000000
==== e(   1) =    -7.98539 eV ==== 
     psi = 0.415*[#   1]+0.415*[#   5]+0.067*[#   9]+0.065*[#  15]+0.010*[#  10]+
          +0.010*[#  13]+0.007*[#  16]+0.007*[#  19]+
    |psi|^2 = 0.999
==== e(   2) =    -7.64566 eV ==== 
     psi = 0.460*[#   1]+0.460*[#   5]+0.020*[#  10]+0.020*[#  13]+0.018*[#  16]+
          +0.018*[#  19]+
    |psi|^2 = 0.998
==== e(   3) =     4.30737 eV ==== 
     psi = 0.107*[#   2]+0.107*[#   3]+0.107*[#   4]+0.107*[#   6]+0.107*[#   7]+
          +0.107*[#   8]+0.082*[#   9]+0.052*[#  15]+0.033*[#  11]+0.033*[#  12]+
          +0.033*[#  14]+0.032*[#  10]+0.032*[#  13]+0.011*[#  16]+0.011*[#  19]+
          +0.010*[#   1]+0.010*[#   5]+0.006*[#  17]+0.006*[#  18]+0.006*[#  20]+
    |psi|^2 = 0.997
==== e(   4) =     4.48661 eV ==== 
     psi = 0.113*[#   2]+0.113*[#   3]+0.113*[#   4]+0.113*[#   6]+0.113*[#   7]+
          +0.113*[#   8]+0.056*[#  15]+0.041*[#  11]+0.041*[#  12]+0.041*[#  14]+
          +0.029*[#   9]+0.028*[#  10]+0.028*[#  13]+0.016*[#  17]+0.016*[#  18]+
          +0.016*[#  20]+0.001*[#  16]+0.001*[#  19]+
    |psi|^2 = 0.994
==== e(   5) =     5.02792 eV ==== 
     psi = 0.131*[#   2]+0.131*[#   3]+0.131*[#   4]+0.131*[#   6]+0.131*[#   7]+
          +0.131*[#   8]+0.033*[#  11]+0.033*[#  12]+0.033*[#  14]+0.017*[#  17]+
          +0.017*[#  18]+0.017*[#  20]+0.008*[#  10]+0.008*[#  13]+0.008*[#   9]+
          +0.005*[#  16]+0.005*[#  19]+0.001*[#   1]+0.001*[#   5]+
    |psi|^2 = 0.976
==== e(   6) =     5.69728 eV ==== 
     psi = 0.202*[#  10]+0.202*[#  13]+0.093*[#   2]+0.093*[#   3]+0.093*[#   4]+
          +0.093*[#   6]+0.093*[#   7]+0.093*[#   8]+0.009*[#  16]+0.009*[#  19]+
          +0.005*[#  11]+0.005*[#  12]+0.005*[#  14]+
    |psi|^2 = 0.998
==== e(   7) =     6.02052 eV ==== 
     psi = 0.113*[#   2]+0.113*[#   3]+0.113*[#   4]+0.113*[#   6]+0.113*[#   7]+
          +0.113*[#   8]+0.060*[#  10]+0.060*[#  13]+0.026*[#  16]+0.026*[#  19]+
          +0.024*[#  11]+0.024*[#  12]+0.024*[#  14]+0.018*[#  17]+0.018*[#  18]+
          +0.018*[#  20]+0.004*[#  15]+0.004*[#   9]+0.003*[#   1]+0.003*[#   5]+
    |psi|^2 = 0.990
==== e(   8) =     6.56776 eV ==== 
     psi = 0.129*[#   2]+0.129*[#   3]+0.129*[#   4]+0.129*[#   6]+0.129*[#   7]+
          +0.129*[#   8]+0.058*[#  16]+0.058*[#  19]+0.024*[#  11]+0.024*[#  12]+
          +0.024*[#  14]+0.008*[#  17]+0.008*[#  18]+0.008*[#  20]+0.004*[#  10]+
          +0.004*[#  13]+
    |psi|^2 = 0.993
==== e(   9) =     7.90927 eV ==== 
     psi = 0.270*[#  11]+0.270*[#  12]+0.270*[#  14]+0.041*[#  10]+0.041*[#  13]+
          +0.012*[#   2]+0.012*[#   3]+0.012*[#   4]+0.012*[#   6]+0.012*[#   7]+
          +0.012*[#   8]+0.007*[#   9]+0.005*[#   1]+0.005*[#   5]+0.003*[#  17]+
          +0.003*[#  18]+0.003*[#  20]+
    |psi|^2 = 0.993
==== e(  10) =     8.65113 eV ==== 
     psi = 0.285*[#  11]+0.285*[#  12]+0.285*[#  14]+0.044*[#  10]+0.044*[#  13]+
          +0.007*[#  16]+0.007*[#  19]+0.007*[#   2]+0.007*[#   3]+0.007*[#   4]+
          +0.007*[#   6]+0.007*[#   7]+0.007*[#   8]+
    |psi|^2 = 0.998
==== e(  11) =     8.89209 eV ==== 
     psi = 0.254*[#  11]+0.254*[#  12]+0.254*[#  14]+0.031*[#   2]+0.031*[#   3]+
          +0.031*[#   4]+0.031*[#   6]+0.031*[#   7]+0.031*[#   8]+0.020*[#   9]+
          +0.004*[#  10]+0.004*[#  13]+0.003*[#  15]+0.002*[#   1]+0.002*[#   5]+
    |psi|^2 = 0.986
==== e(  12) =     9.65514 eV ==== 
     psi = 0.288*[#  10]+0.288*[#  13]+0.046*[#   2]+0.046*[#   3]+0.046*[#   4]+
          +0.046*[#   6]+0.046*[#   7]+0.046*[#   8]+0.027*[#   1]+0.027*[#   5]+
          +0.022*[#  15]+0.012*[#  16]+0.012*[#  19]+0.008*[#  11]+0.008*[#  12]+
          +0.008*[#  14]+0.002*[#   9]+0.001*[#  17]+0.001*[#  18]+0.001*[#  20]+
    |psi|^2 = 0.984
==== e(  13) =     9.92561 eV ==== 
     psi = 0.244*[#  10]+0.244*[#  13]+0.068*[#   2]+0.068*[#   3]+0.068*[#   4]+
          +0.068*[#   6]+0.068*[#   7]+0.068*[#   8]+0.019*[#  11]+0.019*[#  12]+
          +0.019*[#  14]+0.009*[#  16]+0.009*[#  19]+0.004*[#  17]+0.004*[#  18]+
          +0.004*[#  20]+
    |psi|^2 = 0.985
==== e(  14) =    11.05605 eV ==== 
     psi = 0.291*[#  17]+0.291*[#  18]+0.291*[#  20]+0.013*[#  16]+0.013*[#  19]+
          +0.012*[#   2]+0.012*[#   3]+0.012*[#   4]+0.012*[#   6]+0.012*[#   7]+
          +0.012*[#   8]+0.010*[#  15]+0.002*[#   1]+0.002*[#   5]+0.001*[#  11]+
          +0.001*[#  12]+0.001*[#  14]+
    |psi|^2 = 0.994
==== e(  15) =    12.13330 eV ==== 
     psi = 0.321*[#  17]+0.321*[#  18]+0.321*[#  20]+0.006*[#   2]+0.006*[#   3]+
          +0.006*[#   4]+0.006*[#   6]+0.006*[#   7]+0.006*[#   8]+
    |psi|^2 = 0.999
==== e(  16) =    12.35833 eV ==== 
     psi = 0.305*[#  17]+0.305*[#  18]+0.305*[#  20]+0.012*[#   2]+0.012*[#   3]+
          +0.012*[#   4]+0.012*[#   6]+0.012*[#   7]+0.012*[#   8]+0.004*[#  15]+
          +0.003*[#   9]+
    |psi|^2 = 0.998
==== e(  17) =    13.15310 eV ==== 
     psi = 0.381*[#  16]+0.381*[#  19]+0.047*[#   9]+0.035*[#   1]+0.035*[#   5]+
          +0.015*[#   2]+0.015*[#   3]+0.015*[#   4]+0.015*[#   6]+0.015*[#   7]+
          +0.015*[#   8]+0.006*[#  17]+0.006*[#  18]+0.006*[#  20]+0.003*[#  15]+
    |psi|^2 = 0.991
==== e(  18) =    13.36403 eV ==== 
     psi = 0.414*[#  16]+0.414*[#  19]+0.026*[#   2]+0.026*[#   3]+0.026*[#   4]+
          +0.026*[#   6]+0.026*[#   7]+0.026*[#   8]+0.003*[#  10]+0.003*[#  13]+
    |psi|^2 = 0.988
==== e(  19) =    16.61366 eV ==== 
     psi = 0.345*[#   9]+0.255*[#  15]+0.038*[#   2]+0.038*[#   3]+0.038*[#   4]+
          +0.038*[#   6]+0.038*[#   7]+0.038*[#   8]+0.031*[#   1]+0.031*[#   5]+
          +0.021*[#  16]+0.021*[#  19]+0.001*[#  10]+0.001*[#  13]+
    |psi|^2 = 0.935
==== e(  20) =    19.25864 eV ==== 
     psi = 0.154*[#  15]+0.116*[#   9]+0.005*[#   2]+0.005*[#   3]+0.005*[#   4]+
          +0.005*[#   6]+0.005*[#   7]+0.005*[#   8]+0.002*[#   1]+0.002*[#   5]+
          +0.002*[#  10]+0.002*[#  13]+
    |psi|^2 = 0.310
==== e(  21) =    19.76734 eV ==== 
     psi = 0.296*[#  15]+0.258*[#   9]+0.018*[#   2]+0.018*[#   3]+0.018*[#   4]+
          +0.018*[#   6]+0.018*[#   7]+0.018*[#   8]+
    |psi|^2 = 0.664
==== e(  22) =    20.76903 eV ==== 
     psi = 0.005*[#   2]+0.005*[#   3]+0.005*[#   4]+0.005*[#   6]+0.005*[#   7]+
          +0.005*[#   8]+0.002*[#   9]+
    |psi|^2 = 0.032
==== e(  23) =    21.64177 eV ==== 
     psi = 0.064*[#  15]+0.004*[#   2]+0.004*[#   3]+0.004*[#   4]+0.004*[#   6]+
          +0.004*[#   7]+0.004*[#   8]+0.002*[#   9]+0.002*[#   1]+0.002*[#   5]+
    |psi|^2 = 0.096
==== e(  24) =    23.34083 eV ==== 
     psi = 
    |psi|^2 = 0.004

 k =  -0.7500000000  0.2500000000  0.2500000000
==== e(   1) =    -7.73696 eV ==== 
     psi = 0.449*[#   1]+0.449*[#   5]+0.035*[#  10]+0.035*[#  13]+0.026*[#   9]+
    |psi|^2 = 0.998
==== e(   2) =    -7.71308 eV ==== 
     psi = 0.454*[#   1]+0.454*[#   5]+0.030*[#  16]+0.030*[#  19]+0.026*[#  15]+
    |psi|^2 = 0.998
==== e(   3) =     4.05461 eV ==== 
     psi = 0.112*[#   2]+0.112*[#   3]+0.112*[#   4]+0.112*[#   6]+0.112*[#   7]+
          +0.112*[#   8]+0.112*[#   9]+0.062*[#  11]+0.062*[#  12]+0.062*[#  14]+
          +0.010*[#  10]+0.010*[#  13]+0.001*[#   1]+0.001*[#   5]+
    |psi|^2 = 0.997
==== e(   4) =     4.34185 eV ==== 
     psi = 0.127*[#   2]+0.127*[#   3]+0.127*[#   4]+0.127*[#   6]+0.127*[#   7]+
          +0.127*[#   8]+0.114*[#  15]+0.034*[#  17]+0.034*[#  18]+0.034*[#  20]+
          +0.004*[#  16]+0.004*[#  19]+0.002*[#   1]+0.002*[#   5]+
    |psi|^2 = 0.992
==== e(   5) =     5.15533 eV ==== 
     psi = 0.105*[#  10]+0.105*[#  13]+0.100*[#   2]+0.100*[#   3]+0.100*[#   4]+
          +0.100*[#   6]+0.100*[#   7]+0.100*[#   8]+0.056*[#  11]+0.056*[#  12]+
          +0.056*[#  14]+0.005*[#   1]+0.005*[#   5]+
    |psi|^2 = 0.984
==== e(   6) =     5.69272 eV ==== 
     psi = 0.201*[#  10]+0.201*[#  13]+0.092*[#   2]+0.092*[#   3]+0.092*[#   4]+
          +0.092*[#   6]+0.092*[#   7]+0.092*[#   8]+0.014*[#  11]+0.014*[#  12]+
          +0.014*[#  14]+
    |psi|^2 = 0.998
==== e(   7) =     5.79663 eV ==== 
     psi = 0.136*[#   2]+0.136*[#   3]+0.136*[#   4]+0.136*[#   6]+0.136*[#   7]+
          +0.136*[#   8]+0.042*[#  16]+0.042*[#  19]+0.023*[#  17]+0.023*[#  18]+
          +0.023*[#  20]+0.002*[#  15]+
    |psi|^2 = 0.975
==== e(   8) =     6.48869 eV ==== 
     psi = 0.137*[#   2]+0.137*[#   3]+0.137*[#   4]+0.137*[#   6]+0.137*[#   7]+
          +0.137*[#   8]+0.073*[#  16]+0.073*[#  19]+0.008*[#  17]+0.008*[#  18]+
          +0.008*[#  20]+
    |psi|^2 = 0.992
==== e(   9) =     7.85601 eV ==== 
     psi = 0.271*[#  11]+0.271*[#  12]+0.271*[#  14]+0.052*[#  10]+0.052*[#  13]+
          +0.010*[#   2]+0.010*[#   3]+0.010*[#   4]+0.010*[#   6]+0.010*[#   7]+
          +0.010*[#   8]+0.006*[#   1]+0.006*[#   5]+0.002*[#   9]+
    |psi|^2 = 0.993
==== e(  10) =     8.63915 eV ==== 
     psi = 0.296*[#  11]+0.296*[#  12]+0.296*[#  14]+0.055*[#  10]+0.055*[#  13]+
    |psi|^2 = 0.999
==== e(  11) =     8.89597 eV ==== 
     psi = 0.265*[#  11]+0.265*[#  12]+0.265*[#  14]+0.039*[#   9]+0.026*[#   2]+
          +0.026*[#   3]+0.026*[#   4]+0.026*[#   6]+0.026*[#   7]+0.026*[#   8]+
    |psi|^2 = 0.994
==== e(  12) =     9.79972 eV ==== 
     psi = 0.292*[#  10]+0.292*[#  13]+0.051*[#   2]+0.051*[#   3]+0.051*[#   4]+
          +0.051*[#   6]+0.051*[#   7]+0.051*[#   8]+0.026*[#   1]+0.026*[#   5]+
          +0.010*[#  11]+0.010*[#  12]+0.010*[#  14]+
    |psi|^2 = 0.974
==== e(  13) =    10.03459 eV ==== 
     psi = 0.241*[#  10]+0.241*[#  13]+0.072*[#   2]+0.072*[#   3]+0.072*[#   4]+
          +0.072*[#   6]+0.072*[#   7]+0.072*[#   8]+0.023*[#  11]+0.023*[#  12]+
          +0.023*[#  14]+
    |psi|^2 = 0.982
==== e(  14) =    10.96020 eV ==== 
     psi = 0.292*[#  17]+0.292*[#  18]+0.292*[#  20]+0.015*[#  16]+0.015*[#  19]+
          +0.012*[#   2]+0.012*[#   3]+0.012*[#   4]+0.012*[#   6]+0.012*[#   7]+
          +0.012*[#   8]+0.008*[#  15]+0.002*[#   1]+0.002*[#   5]+
    |psi|^2 = 0.994
==== e(  15) =    12.22584 eV ==== 
     psi = 0.325*[#  17]+0.325*[#  18]+0.325*[#  20]+0.003*[#   2]+0.003*[#   3]+
          +0.003*[#   4]+0.003*[#   6]+0.003*[#   7]+0.003*[#   8]+0.002*[#  16]+
          +0.002*[#  19]+
    |psi|^2 = 1.000
==== e(  16) =    12.45454 eV ==== 
     psi = 0.308*[#  17]+0.308*[#  18]+0.308*[#  20]+0.011*[#   2]+0.011*[#   3]+
          +0.011*[#   4]+0.011*[#   6]+0.011*[#   7]+0.011*[#   8]+0.006*[#  15]+
          +0.003*[#  16]+0.003*[#  19]+
    |psi|^2 = 0.999
==== e(  17) =    13.32883 eV ==== 
     psi = 0.398*[#  16]+0.398*[#  19]+0.031*[#   1]+0.031*[#   5]+0.017*[#   2]+
          +0.017*[#   3]+0.017*[#   4]+0.017*[#   6]+0.017*[#   7]+0.017*[#   8]+
          +0.006*[#  17]+0.006*[#  18]+0.006*[#  20]+
    |psi|^2 = 0.980
==== e(  18) =    13.34254 eV ==== 
     psi = 0.422*[#  16]+0.422*[#  19]+0.024*[#   2]+0.024*[#   3]+0.024*[#   4]+
          +0.024*[#   6]+0.024*[#   7]+0.024*[#   8]+
    |psi|^2 = 0.988
==== e(  19) =    17.75392 eV ==== 
     psi = 0.636*[#   9]+0.020*[#   2]+0.020*[#   3]+0.020*[#   4]+0.020*[#   6]+
          +0.020*[#   7]+0.020*[#   8]+0.010*[#   1]+0.010*[#   5]+
    |psi|^2 = 0.778
==== e(  20) =    18.16931 eV ==== 
     psi = 0.510*[#  15]+0.016*[#   2]+0.016*[#   3]+0.016*[#   4]+0.016*[#   6]+
          +0.016*[#   7]+0.016*[#   8]+0.006*[#   1]+0.006*[#   5]+0.004*[#  16]+
          +0.004*[#  19]+
    |psi|^2 = 0.629
==== e(  21) =    20.07677 eV ==== 
     psi = 0.162*[#   9]+0.009*[#   2]+0.009*[#   3]+0.009*[#   4]+0.009*[#   6]+
          +0.009*[#   7]+0.009*[#   8]+
    |psi|^2 = 0.216
==== e(  22) =    20.58538 eV ==== 
     psi = 0.308*[#  15]+0.010*[#   2]+0.010*[#   3]+0.010*[#   4]+0.010*[#   6]+
          +0.010*[#   7]+0.010*[#   8]+0.003*[#   1]+0.003*[#   5]+
    |psi|^2 = 0.373
==== e(  23) =    21.93662 eV ==== 
     psi = 0.012*[#  15]+0.003*[#   2]+0.003*[#   3]+0.003*[#   4]+0.003*[#   6]+
          +0.003*[#   7]+0.003*[#   8]+
    |psi|^2 = 0.032
==== e(  24) =    21.97274 eV ==== 
     psi = 0.010*[#   9]+0.003*[#   2]+0.003*[#   3]+0.003*[#   4]+0.003*[#   6]+
          +0.003*[#   7]+0.003*[#   8]+
    |psi|^2 = 0.029

 k =   0.1250000000  0.1250000000 -0.1250000000
==== e(   1) =    -8.70405 eV ==== 
     psi = 0.316*[#   1]+0.316*[#   5]+0.186*[#   9]+0.181*[#  15]+
    |psi|^2 = 1.000
==== e(   2) =    -7.72000 eV ==== 
     psi = 0.480*[#   1]+0.480*[#   5]+0.006*[#  15]+0.006*[#   9]+0.006*[#  10]+
          +0.006*[#  13]+0.005*[#  16]+0.005*[#  19]+
    |psi|^2 = 0.995
==== e(   3) =     3.51564 eV ==== 
     psi = 0.105*[#   2]+0.105*[#   3]+0.105*[#   4]+0.105*[#   6]+0.105*[#   7]+
          +0.105*[#   8]+0.074*[#   9]+0.069*[#  15]+0.052*[#  11]+0.052*[#  12]+
          +0.052*[#  14]+0.022*[#  17]+0.022*[#  18]+0.022*[#  20]+0.001*[#   1]+
          +0.001*[#   5]+
    |psi|^2 = 0.999
==== e(   4) =     5.40344 eV ==== 
     psi = 0.160*[#  10]+0.160*[#  13]+0.091*[#   2]+0.091*[#   3]+0.091*[#   4]+
          +0.091*[#   6]+0.091*[#   7]+0.091*[#   8]+0.023*[#  16]+0.023*[#  19]+
          +0.022*[#  11]+0.022*[#  12]+0.022*[#  14]+0.004*[#  17]+0.004*[#  18]+
          +0.004*[#  20]+0.001*[#   1]+0.001*[#   5]+
    |psi|^2 = 0.991
==== e(   5) =     5.60154 eV ==== 
     psi = 0.189*[#  10]+0.189*[#  13]+0.087*[#   2]+0.087*[#   3]+0.087*[#   4]+
          +0.087*[#   6]+0.087*[#   7]+0.087*[#   8]+0.025*[#  16]+0.025*[#  19]+
          +0.014*[#  11]+0.014*[#  12]+0.014*[#  14]+0.004*[#  17]+0.004*[#  18]+
          +0.004*[#  20]+
    |psi|^2 = 0.999
==== e(   6) =     6.75489 eV ==== 
     psi = 0.116*[#   2]+0.116*[#   3]+0.116*[#   4]+0.116*[#   6]+0.116*[#   7]+
          +0.116*[#   8]+0.051*[#  11]+0.051*[#  12]+0.051*[#  14]+0.038*[#   9]+
          +0.022*[#   1]+0.022*[#   5]+0.022*[#  15]+0.011*[#  17]+0.011*[#  18]+
          +0.011*[#  20]+0.004*[#  10]+0.004*[#  13]+
    |psi|^2 = 0.995
==== e(   7) =     7.27445 eV ==== 
     psi = 0.112*[#   2]+0.112*[#   3]+0.112*[#   4]+0.112*[#   6]+0.112*[#   7]+
          +0.112*[#   8]+0.053*[#  11]+0.053*[#  12]+0.053*[#  14]+0.047*[#  10]+
          +0.047*[#  13]+0.034*[#  16]+0.034*[#  19]+0.002*[#  17]+0.002*[#  18]+
          +0.002*[#  20]+
    |psi|^2 = 0.997
==== e(   8) =     7.33016 eV ==== 
     psi = 0.126*[#   2]+0.126*[#   3]+0.126*[#   4]+0.126*[#   6]+0.126*[#   7]+
          +0.126*[#   8]+0.040*[#  10]+0.040*[#  13]+0.040*[#  16]+0.040*[#  19]+
          +0.018*[#  11]+0.018*[#  12]+0.018*[#  14]+0.006*[#  17]+0.006*[#  18]+
          +0.006*[#  20]+0.002*[#  15]+
    |psi|^2 = 0.995
==== e(   9) =     8.14446 eV ==== 
     psi = 0.264*[#  11]+0.264*[#  12]+0.264*[#  14]+0.035*[#  10]+0.035*[#  13]+
          +0.016*[#   9]+0.014*[#   2]+0.014*[#   3]+0.014*[#   4]+0.014*[#   6]+
          +0.014*[#   7]+0.014*[#   8]+0.008*[#  17]+0.008*[#  18]+0.008*[#  20]+
          +0.006*[#  15]+0.002*[#  16]+0.002*[#  19]+0.001*[#   1]+0.001*[#   5]+
    |psi|^2 = 0.997
==== e(  10) =     8.41538 eV ==== 
     psi = 0.262*[#  11]+0.262*[#  12]+0.262*[#  14]+0.028*[#   2]+0.028*[#   3]+
          +0.028*[#   4]+0.028*[#   6]+0.028*[#   7]+0.028*[#   8]+0.014*[#  16]+
          +0.014*[#  19]+0.005*[#  17]+0.005*[#  18]+0.005*[#  20]+
    |psi|^2 = 0.997
==== e(  11) =     8.43337 eV ==== 
     psi = 0.245*[#  11]+0.245*[#  12]+0.245*[#  14]+0.033*[#   2]+0.033*[#   3]+
          +0.033*[#   4]+0.033*[#   6]+0.033*[#   7]+0.033*[#   8]+0.024*[#  15]+
          +0.006*[#   1]+0.006*[#   5]+0.004*[#  10]+0.004*[#  13]+0.004*[#  17]+
          +0.004*[#  18]+0.004*[#  20]+0.003*[#  16]+0.003*[#  19]+0.001*[#   9]+
    |psi|^2 = 0.996
==== e(  12) =     9.64046 eV ==== 
     psi = 0.250*[#  10]+0.250*[#  13]+0.064*[#   2]+0.064*[#   3]+0.064*[#   4]+
          +0.064*[#   6]+0.064*[#   7]+0.064*[#   8]+0.036*[#  16]+0.036*[#  19]+
          +0.012*[#  17]+0.012*[#  18]+0.012*[#  20]+
    |psi|^2 = 0.992
==== e(  13) =     9.65044 eV ==== 
     psi = 0.238*[#  10]+0.238*[#  13]+0.068*[#   2]+0.068*[#   3]+0.068*[#   4]+
          +0.068*[#   6]+0.068*[#   7]+0.068*[#   8]+0.029*[#  16]+0.029*[#  19]+
          +0.007*[#  11]+0.007*[#  12]+0.007*[#  14]+0.007*[#  17]+0.007*[#  18]+
          +0.007*[#  20]+0.002*[#   1]+0.002*[#   5]+
    |psi|^2 = 0.989
==== e(  14) =    11.41277 eV ==== 
     psi = 0.300*[#  17]+0.300*[#  18]+0.300*[#  20]+0.023*[#  16]+0.023*[#  19]+
          +0.007*[#  15]+0.004*[#   2]+0.004*[#   3]+0.004*[#   4]+0.004*[#   6]+
          +0.004*[#   7]+0.004*[#   8]+0.003*[#   1]+0.003*[#   5]+0.003*[#  11]+
          +0.003*[#  12]+0.003*[#  14]+0.002*[#   9]+
    |psi|^2 = 0.996
==== e(  15) =    11.64560 eV ==== 
     psi = 0.307*[#  17]+0.307*[#  18]+0.307*[#  20]+0.015*[#  16]+0.015*[#  19]+
          +0.005*[#   2]+0.005*[#   3]+0.005*[#   4]+0.005*[#   6]+0.005*[#   7]+
          +0.005*[#   8]+0.004*[#  11]+0.004*[#  12]+0.004*[#  14]+
    |psi|^2 = 0.998
==== e(  16) =    11.92130 eV ==== 
     psi = 0.291*[#  17]+0.291*[#  18]+0.291*[#  20]+0.025*[#   9]+0.014*[#   2]+
          +0.014*[#   3]+0.014*[#   4]+0.014*[#   6]+0.014*[#   7]+0.014*[#   8]+
          +0.003*[#  11]+0.003*[#  12]+0.003*[#  14]+0.003*[#   1]+0.003*[#   5]+
    |psi|^2 = 0.997
==== e(  17) =    12.89223 eV ==== 
     psi = 0.283*[#   9]+0.248*[#  15]+0.149*[#   1]+0.149*[#   5]+0.025*[#   2]+
          +0.025*[#   3]+0.025*[#   4]+0.025*[#   6]+0.025*[#   7]+0.025*[#   8]+
          +0.005*[#  17]+0.005*[#  18]+0.005*[#  20]+0.001*[#  16]+0.001*[#  19]+
    |psi|^2 = 0.995
==== e(  18) =    13.31462 eV ==== 
     psi = 0.369*[#  16]+0.369*[#  19]+0.029*[#   2]+0.029*[#   3]+0.029*[#   4]+
          +0.029*[#   6]+0.029*[#   7]+0.029*[#   8]+0.010*[#  10]+0.010*[#  13]+
          +0.008*[#   1]+0.008*[#   5]+0.007*[#  17]+0.007*[#  18]+0.007*[#  20]+
          +0.002*[#  15]+
    |psi|^2 = 0.975
==== e(  19) =    13.40167 eV ==== 
     psi = 0.374*[#  16]+0.374*[#  19]+0.035*[#   2]+0.035*[#   3]+0.035*[#   4]+
          +0.035*[#   6]+0.035*[#   7]+0.035*[#   8]+0.012*[#  10]+0.012*[#  13]+
          +0.004*[#  17]+0.004*[#  18]+0.004*[#  20]+
    |psi|^2 = 0.990
==== e(  20) =    16.74401 eV ==== 
     psi = 0.064*[#  15]+0.057*[#   9]+0.008*[#   2]+0.008*[#   3]+0.008*[#   4]+
          +0.008*[#   6]+0.008*[#   7]+0.008*[#   8]+0.005*[#  16]+0.005*[#  19]+
          +0.003*[#   1]+0.003*[#   5]+
    |psi|^2 = 0.185
==== e(  21) =    20.24369 eV ==== 
     psi = 0.358*[#  15]+0.305*[#   9]+0.028*[#   2]+0.028*[#   3]+0.028*[#   4]+
          +0.028*[#   6]+0.028*[#   7]+0.028*[#   8]+0.002*[#   1]+0.002*[#   5]+
    |psi|^2 = 0.838
==== e(  22) =    23.32477 eV ==== 
     psi = 
    |psi|^2 = 0.005
==== e(  23) =    24.79309 eV ==== 
     psi = 
    |psi|^2 = 0.007
==== e(  24) =    25.02860 eV ==== 
     psi = 
    |psi|^2 = 0.004

 k =   0.3125000000  0.0625000000 -0.1875000000
==== e(   1) =    -8.45631 eV ==== 
     psi = 0.347*[#   1]+0.347*[#   5]+0.152*[#   9]+0.147*[#  15]+0.001*[#  10]+
          +0.001*[#  13]+
    |psi|^2 = 1.000
==== e(   2) =    -7.70443 eV ==== 
     psi = 0.464*[#   1]+0.464*[#   5]+0.013*[#  10]+0.013*[#  13]+0.011*[#  16]+
          +0.011*[#  19]+0.008*[#  15]+0.008*[#   9]+
    |psi|^2 = 0.997
==== e(   3) =     3.95500 eV ==== 
     psi = 0.110*[#   2]+0.110*[#   3]+0.110*[#   4]+0.110*[#   6]+0.110*[#   7]+
          +0.110*[#   8]+0.063*[#  15]+0.062*[#   9]+0.046*[#  11]+0.046*[#  12]+
          +0.046*[#  14]+0.018*[#  17]+0.018*[#  18]+0.018*[#  20]+0.008*[#  10]+
          +0.008*[#  13]+0.002*[#  16]+0.002*[#  19]+0.001*[#   1]+0.001*[#   5]+
    |psi|^2 = 0.998
==== e(   4) =     5.30079 eV ==== 
     psi = 0.112*[#  10]+0.112*[#  13]+0.101*[#   2]+0.101*[#   3]+0.101*[#   4]+
          +0.101*[#   6]+0.101*[#   7]+0.101*[#   8]+0.034*[#  11]+0.034*[#  12]+
          +0.034*[#  14]+0.010*[#  15]+0.008*[#   9]+0.007*[#  17]+0.007*[#  18]+
          +0.007*[#  20]+0.005*[#   1]+0.005*[#   5]+0.004*[#  16]+0.004*[#  19]+
    |psi|^2 = 0.987
==== e(   5) =     5.47893 eV ==== 
     psi = 0.139*[#  10]+0.139*[#  13]+0.098*[#   2]+0.098*[#   3]+0.098*[#   4]+
          +0.098*[#   6]+0.098*[#   7]+0.098*[#   8]+0.029*[#   9]+0.020*[#  15]+
          +0.011*[#   1]+0.011*[#   5]+0.011*[#  16]+0.011*[#  19]+0.007*[#  17]+
          +0.007*[#  18]+0.007*[#  20]+0.005*[#  11]+0.005*[#  12]+0.005*[#  14]+
    |psi|^2 = 0.996
==== e(   6) =     5.79879 eV ==== 
     psi = 0.108*[#   2]+0.108*[#   3]+0.108*[#   4]+0.108*[#   6]+0.108*[#   7]+
          +0.108*[#   8]+0.050*[#  10]+0.050*[#  13]+0.040*[#  16]+0.040*[#  19]+
          +0.032*[#  11]+0.032*[#  12]+0.032*[#  14]+0.028*[#   9]+0.011*[#   1]+
          +0.011*[#   5]+0.010*[#  15]+0.004*[#  17]+0.004*[#  18]+0.004*[#  20]+
    |psi|^2 = 0.995
==== e(   7) =     6.64042 eV ==== 
     psi = 0.102*[#   2]+0.102*[#   3]+0.102*[#   4]+0.102*[#   6]+0.102*[#   7]+
          +0.102*[#   8]+0.082*[#  10]+0.082*[#  13]+0.045*[#  11]+0.045*[#  12]+
          +0.045*[#  14]+0.034*[#  16]+0.034*[#  19]+0.004*[#  17]+0.004*[#  18]+
          +0.004*[#  20]+0.002*[#   1]+0.002*[#   5]+
    |psi|^2 = 0.996
==== e(   8) =     6.95478 eV ==== 
     psi = 0.119*[#   2]+0.119*[#   3]+0.119*[#   4]+0.119*[#   6]+0.119*[#   7]+
          +0.119*[#   8]+0.054*[#  11]+0.054*[#  12]+0.054*[#  14]+0.020*[#  16]+
          +0.020*[#  19]+0.019*[#  17]+0.019*[#  18]+0.019*[#  20]+0.010*[#  10]+
          +0.010*[#  13]+
    |psi|^2 = 0.992
==== e(   9) =     8.14350 eV ==== 
     psi = 0.287*[#  11]+0.287*[#  12]+0.287*[#  14]+0.013*[#   2]+0.013*[#   3]+
          +0.013*[#   4]+0.013*[#   6]+0.013*[#   7]+0.013*[#   8]+0.011*[#  15]+
          +0.009*[#   9]+0.009*[#  17]+0.009*[#  18]+0.009*[#  20]+0.005*[#  10]+
          +0.005*[#  13]+
    |psi|^2 = 0.997
==== e(  10) =     8.62128 eV ==== 
     psi = 0.273*[#  11]+0.273*[#  12]+0.273*[#  14]+0.022*[#   2]+0.022*[#   3]+
          +0.022*[#   4]+0.022*[#   6]+0.022*[#   7]+0.022*[#   8]+0.018*[#  15]+
          +0.004*[#   1]+0.004*[#   5]+0.004*[#  16]+0.004*[#  19]+0.003*[#   9]+
          +0.002*[#  10]+0.002*[#  13]+0.001*[#  17]+0.001*[#  18]+0.001*[#  20]+
    |psi|^2 = 0.995
==== e(  11) =     8.65692 eV ==== 
     psi = 0.206*[#  11]+0.206*[#  12]+0.206*[#  14]+0.048*[#   2]+0.048*[#   3]+
          +0.048*[#   4]+0.048*[#   6]+0.048*[#   7]+0.048*[#   8]+0.026*[#  10]+
          +0.026*[#  13]+0.013*[#  16]+0.013*[#  19]+0.002*[#  17]+0.002*[#  18]+
          +0.002*[#  20]+0.001*[#   1]+0.001*[#   5]+
    |psi|^2 = 0.992
==== e(  12) =     9.47209 eV ==== 
     psi = 0.280*[#  10]+0.280*[#  13]+0.048*[#   2]+0.048*[#   3]+0.048*[#   4]+
          +0.048*[#   6]+0.048*[#   7]+0.048*[#   8]+0.037*[#  16]+0.037*[#  19]+
          +0.016*[#  15]+0.010*[#   1]+0.010*[#   5]+0.008*[#  17]+0.008*[#  18]+
          +0.008*[#  20]+0.002*[#  11]+0.002*[#  12]+0.002*[#  14]+0.002*[#   9]+
    |psi|^2 = 0.990
==== e(  13) =     9.82966 eV ==== 
     psi = 0.249*[#  10]+0.249*[#  13]+0.067*[#   2]+0.067*[#   3]+0.067*[#   4]+
          +0.067*[#   6]+0.067*[#   7]+0.067*[#   8]+0.011*[#   1]+0.011*[#   5]+
          +0.009*[#  17]+0.009*[#  18]+0.009*[#  20]+0.007*[#  11]+0.007*[#  12]+
          +0.007*[#  14]+0.006*[#  16]+0.006*[#  19]+0.002*[#  15]+
    |psi|^2 = 0.985
==== e(  14) =    11.50333 eV ==== 
     psi = 0.288*[#  17]+0.288*[#  18]+0.288*[#  20]+0.017*[#   2]+0.017*[#   3]+
          +0.017*[#   4]+0.017*[#   6]+0.017*[#   7]+0.017*[#   8]+0.010*[#  16]+
          +0.010*[#  19]+0.004*[#  10]+0.004*[#  13]+0.001*[#  11]+0.001*[#  12]+
          +0.001*[#  14]+
    |psi|^2 = 0.996
==== e(  15) =    11.63902 eV ==== 
     psi = 0.310*[#  17]+0.310*[#  18]+0.310*[#  20]+0.007*[#  15]+0.006*[#   2]+
          +0.006*[#   3]+0.006*[#   4]+0.006*[#   6]+0.006*[#   7]+0.006*[#   8]+
          +0.004*[#  16]+0.004*[#  19]+0.003*[#  11]+0.003*[#  12]+0.003*[#  14]+
    |psi|^2 = 0.998
==== e(  16) =    12.06170 eV ==== 
     psi = 0.295*[#  17]+0.295*[#  18]+0.295*[#  20]+0.023*[#   9]+0.010*[#  16]+
          +0.010*[#  19]+0.009*[#   2]+0.009*[#   3]+0.009*[#   4]+0.009*[#   6]+
          +0.009*[#   7]+0.009*[#   8]+0.004*[#   1]+0.004*[#   5]+0.002*[#  11]+
          +0.002*[#  12]+0.002*[#  14]+
    |psi|^2 = 0.998
==== e(  17) =    12.99645 eV ==== 
     psi = 0.342*[#  16]+0.342*[#  19]+0.068*[#   9]+0.031*[#   1]+0.031*[#   5]+
          +0.020*[#   2]+0.020*[#   3]+0.020*[#   4]+0.020*[#   6]+0.020*[#   7]+
          +0.020*[#   8]+0.017*[#  15]+0.011*[#  17]+0.011*[#  18]+0.011*[#  20]+
          +0.003*[#  10]+0.003*[#  13]+
    |psi|^2 = 0.990
==== e(  18) =    13.36148 eV ==== 
     psi = 0.384*[#  16]+0.384*[#  19]+0.029*[#   2]+0.029*[#   3]+0.029*[#   4]+
          +0.029*[#   6]+0.029*[#   7]+0.029*[#   8]+0.009*[#  10]+0.009*[#  13]+
          +0.006*[#   1]+0.006*[#   5]+0.004*[#  17]+0.004*[#  18]+0.004*[#  20]+
          +0.002*[#   9]+
    |psi|^2 = 0.985
==== e(  19) =    14.41852 eV ==== 
     psi = 0.232*[#   9]+0.225*[#  15]+0.082*[#   1]+0.082*[#   5]+0.058*[#  16]+
          +0.058*[#  19]+0.041*[#   2]+0.041*[#   3]+0.041*[#   4]+0.041*[#   6]+
          +0.041*[#   7]+0.041*[#   8]+0.001*[#  10]+0.001*[#  13]+0.001*[#  17]+
          +0.001*[#  18]+0.001*[#  20]+
    |psi|^2 = 0.988
==== e(  20) =    17.91035 eV ==== 
     psi = 0.151*[#  15]+0.134*[#   9]+0.013*[#   2]+0.013*[#   3]+0.013*[#   4]+
          +0.013*[#   6]+0.013*[#   7]+0.013*[#   8]+0.004*[#   1]+0.004*[#   5]+
          +0.002*[#  16]+0.002*[#  19]+
    |psi|^2 = 0.377
==== e(  21) =    20.17304 eV ==== 
     psi = 0.280*[#  15]+0.229*[#   9]+0.019*[#   2]+0.019*[#   3]+0.019*[#   4]+
          +0.019*[#   6]+0.019*[#   7]+0.019*[#   8]+0.002*[#   1]+0.002*[#   5]+
    |psi|^2 = 0.634
==== e(  22) =    22.08221 eV ==== 
     psi = 0.002*[#   2]+0.002*[#   3]+0.002*[#   4]+0.002*[#   6]+0.002*[#   7]+
          +0.002*[#   8]+0.001*[#  16]+0.001*[#  19]+
    |psi|^2 = 0.017
==== e(  23) =    23.64329 eV ==== 
     psi = 0.001*[#  15]+
    |psi|^2 = 0.009
==== e(  24) =    25.07915 eV ==== 
     psi = 0.001*[#   9]+0.001*[#   2]+0.001*[#   3]+0.001*[#   4]+0.001*[#   6]+
          +0.001*[#   7]+0.001*[#   8]+
    |psi|^2 = 0.013

 k =   0.5000000000  0.0000000000 -0.2500000000
==== e(   1) =    -8.09547 eV ==== 
     psi = 0.398*[#   1]+0.398*[#   5]+0.088*[#   9]+0.086*[#  15]+0.007*[#  10]+
          +0.007*[#  13]+0.006*[#  16]+0.006*[#  19]+
    |psi|^2 = 0.999
==== e(   2) =    -7.66142 eV ==== 
     psi = 0.459*[#   1]+0.459*[#   5]+0.019*[#  10]+0.019*[#  13]+0.017*[#  16]+
          +0.017*[#  19]+0.004*[#   9]+0.003*[#  15]+
    |psi|^2 = 0.998
==== e(   3) =     4.37350 eV ==== 
     psi = 0.109*[#   2]+0.109*[#   3]+0.109*[#   4]+0.109*[#   6]+0.109*[#   7]+
          +0.109*[#   8]+0.089*[#  15]+0.053*[#  10]+0.053*[#  13]+0.033*[#  11]+
          +0.033*[#  12]+0.033*[#  14]+0.011*[#  17]+0.011*[#  18]+0.011*[#  20]+
          +0.010*[#   9]+
    |psi|^2 = 0.995
==== e(   4) =     4.58525 eV ==== 
     psi = 0.117*[#   9]+0.109*[#   2]+0.109*[#   3]+0.109*[#   4]+0.109*[#   6]+
          +0.109*[#   7]+0.109*[#   8]+0.025*[#  10]+0.025*[#  13]+0.022*[#  11]+
          +0.022*[#  12]+0.022*[#  14]+0.021*[#  16]+0.021*[#  19]+0.020*[#  15]+
          +0.013*[#   1]+0.013*[#   5]+0.008*[#  17]+0.008*[#  18]+0.008*[#  20]+
    |psi|^2 = 0.998
==== e(   5) =     5.23805 eV ==== 
     psi = 0.125*[#   2]+0.125*[#   3]+0.125*[#   4]+0.125*[#   6]+0.125*[#   7]+
          +0.125*[#   8]+0.059*[#  11]+0.059*[#  12]+0.059*[#  14]+0.017*[#  17]+
          +0.017*[#  18]+0.017*[#  20]+0.001*[#  10]+0.001*[#  13]+
    |psi|^2 = 0.982
==== e(   6) =     5.61226 eV ==== 
     psi = 0.174*[#  10]+0.174*[#  13]+0.098*[#   2]+0.098*[#   3]+0.098*[#   4]+
          +0.098*[#   6]+0.098*[#   7]+0.098*[#   8]+0.026*[#  16]+0.026*[#  19]+
          +0.005*[#   9]+0.001*[#   1]+0.001*[#   5]+
    |psi|^2 = 0.995
==== e(   7) =     6.24032 eV ==== 
     psi = 0.108*[#   2]+0.108*[#   3]+0.108*[#   4]+0.108*[#   6]+0.108*[#   7]+
          +0.108*[#   8]+0.087*[#  10]+0.087*[#  13]+0.044*[#  16]+0.044*[#  19]+
          +0.021*[#  11]+0.021*[#  12]+0.021*[#  14]+0.004*[#   1]+0.004*[#   5]+
          +0.004*[#  17]+0.004*[#  18]+0.004*[#  20]+0.001*[#   9]+
    |psi|^2 = 0.994
==== e(   8) =     6.39796 eV ==== 
     psi = 0.117*[#   2]+0.117*[#   3]+0.117*[#   4]+0.117*[#   6]+0.117*[#   7]+
          +0.117*[#   8]+0.065*[#  11]+0.065*[#  12]+0.065*[#  14]+0.028*[#  17]+
          +0.028*[#  18]+0.028*[#  20]+0.003*[#  16]+0.003*[#  19]+0.002*[#  10]+
          +0.002*[#  13]+0.001*[#  15]+
    |psi|^2 = 0.990
==== e(   9) =     8.12220 eV ==== 
     psi = 0.277*[#  11]+0.277*[#  12]+0.277*[#  14]+0.021*[#   2]+0.021*[#   3]+
          +0.021*[#   4]+0.021*[#   6]+0.021*[#   7]+0.021*[#   8]+0.006*[#  17]+
          +0.006*[#  18]+0.006*[#  20]+0.005*[#  15]+0.004*[#   9]+0.002*[#  10]+
          +0.002*[#  13]+0.002*[#  16]+0.002*[#  19]+
    |psi|^2 = 0.993
==== e(  10) =     8.70014 eV ==== 
     psi = 0.278*[#  11]+0.278*[#  12]+0.278*[#  14]+0.025*[#  10]+0.025*[#  13]+
          +0.014*[#   2]+0.014*[#   3]+0.014*[#   4]+0.014*[#   6]+0.014*[#   7]+
          +0.014*[#   8]+0.007*[#  16]+0.007*[#  19]+0.005*[#   9]+0.003*[#  15]+
          +0.002*[#  17]+0.002*[#  18]+0.002*[#  20]+
    |psi|^2 = 0.996
==== e(  11) =     8.88970 eV ==== 
     psi = 0.220*[#  11]+0.220*[#  12]+0.220*[#  14]+0.051*[#   2]+0.051*[#   3]+
          +0.051*[#   4]+0.051*[#   6]+0.051*[#   7]+0.051*[#   8]+0.006*[#  10]+
          +0.006*[#  13]+0.004*[#   9]+0.001*[#  17]+0.001*[#  18]+0.001*[#  20]+
          +0.001*[#  16]+0.001*[#  19]+
    |psi|^2 = 0.985
==== e(  12) =     9.34720 eV ==== 
     psi = 0.312*[#  10]+0.312*[#  13]+0.034*[#  15]+0.032*[#   2]+0.032*[#   3]+
          +0.032*[#   4]+0.032*[#   6]+0.032*[#   7]+0.032*[#   8]+0.026*[#  16]+
          +0.026*[#  19]+0.023*[#   1]+0.023*[#   5]+0.011*[#  11]+0.011*[#  12]+
          +0.011*[#  14]+0.002*[#  17]+0.002*[#  18]+0.002*[#  20]+
    |psi|^2 = 0.988
==== e(  13) =     9.79734 eV ==== 
     psi = 0.265*[#  10]+0.265*[#  13]+0.055*[#   2]+0.055*[#   3]+0.055*[#   4]+
          +0.055*[#   6]+0.055*[#   7]+0.055*[#   8]+0.029*[#  16]+0.029*[#  19]+
          +0.014*[#   1]+0.014*[#   5]+0.007*[#  11]+0.007*[#  12]+0.007*[#  14]+
          +0.006*[#  17]+0.006*[#  18]+0.006*[#  20]+
    |psi|^2 = 0.984
==== e(  14) =    11.40729 eV ==== 
     psi = 0.289*[#  17]+0.289*[#  18]+0.289*[#  20]+0.017*[#   2]+0.017*[#   3]+
          +0.017*[#   4]+0.017*[#   6]+0.017*[#   7]+0.017*[#   8]+0.005*[#  15]+
          +0.004*[#  11]+0.004*[#  12]+0.004*[#  14]+0.003*[#  16]+0.003*[#  19]+
          +0.003*[#  10]+0.003*[#  13]+0.001*[#   9]+
    |psi|^2 = 0.995
==== e(  15) =    11.85021 eV ==== 
     psi = 0.309*[#  17]+0.309*[#  18]+0.309*[#  20]+0.011*[#   2]+0.011*[#   3]+
          +0.011*[#   4]+0.011*[#   6]+0.011*[#   7]+0.011*[#   8]+
    |psi|^2 = 0.998
==== e(  16) =    12.31477 eV ==== 
     psi = 0.308*[#  17]+0.308*[#  18]+0.308*[#  20]+0.009*[#   2]+0.009*[#   3]+
          +0.009*[#   4]+0.009*[#   6]+0.009*[#   7]+0.009*[#   8]+0.007*[#   9]+
          +0.003*[#  16]+0.003*[#  19]+0.003*[#  15]+0.001*[#   1]+0.001*[#   5]+
    |psi|^2 = 0.999
==== e(  17) =    13.02163 eV ==== 
     psi = 0.377*[#  16]+0.377*[#  19]+0.066*[#   9]+0.027*[#   1]+0.027*[#   5]+
          +0.015*[#   2]+0.015*[#   3]+0.015*[#   4]+0.015*[#   6]+0.015*[#   7]+
          +0.015*[#   8]+0.006*[#  10]+0.006*[#  13]+0.004*[#  17]+0.004*[#  18]+
          +0.004*[#  20]+0.002*[#  15]+
    |psi|^2 = 0.992
==== e(  18) =    13.40490 eV ==== 
     psi = 0.399*[#  16]+0.399*[#  19]+0.026*[#   2]+0.026*[#   3]+0.026*[#   4]+
          +0.026*[#   6]+0.026*[#   7]+0.026*[#   8]+0.008*[#   1]+0.008*[#   5]+
          +0.004*[#  10]+0.004*[#  13]+0.003*[#  15]+0.001*[#  17]+0.001*[#  18]+
          +0.001*[#  20]+
    |psi|^2 = 0.987
==== e(  19) =    16.19922 eV ==== 
     psi = 0.310*[#   9]+0.261*[#  15]+0.042*[#   1]+0.042*[#   5]+0.042*[#   2]+
          +0.042*[#   3]+0.042*[#   4]+0.042*[#   6]+0.042*[#   7]+0.042*[#   8]+
          +0.028*[#  16]+0.028*[#  19]+0.002*[#  10]+0.002*[#  13]+
    |psi|^2 = 0.968
==== e(  20) =    19.09956 eV ==== 
     psi = 0.286*[#  15]+0.234*[#   9]+0.018*[#   2]+0.018*[#   3]+0.018*[#   4]+
          +0.018*[#   6]+0.018*[#   7]+0.018*[#   8]+0.002*[#   1]+0.002*[#   5]+
    |psi|^2 = 0.636
==== e(  21) =    20.22783 eV ==== 
     psi = 0.165*[#  15]+0.132*[#   9]+0.009*[#   2]+0.009*[#   3]+0.009*[#   4]+
          +0.009*[#   6]+0.009*[#   7]+0.009*[#   8]+0.003*[#  16]+0.003*[#  19]+
          +0.002*[#  10]+0.002*[#  13]+
    |psi|^2 = 0.362
==== e(  22) =    20.86069 eV ==== 
     psi = 0.004*[#   2]+0.004*[#   3]+0.004*[#   4]+0.004*[#   6]+0.004*[#   7]+
          +0.004*[#   8]+
    |psi|^2 = 0.030
==== e(  23) =    22.49078 eV ==== 
     psi = 0.001*[#   2]+0.001*[#   3]+0.001*[#   4]+0.001*[#   6]+0.001*[#   7]+
          +0.001*[#   8]+0.001*[#  17]+0.001*[#  18]+0.001*[#  20]+
    |psi|^2 = 0.011
==== e(  24) =    23.17527 eV ==== 
     psi = 0.021*[#  15]+0.002*[#   2]+0.002*[#   3]+0.002*[#   4]+0.002*[#   6]+
          +0.002*[#   7]+0.002*[#   8]+
    |psi|^2 = 0.035

 k =  -0.8125000000  0.4375000000  0.1875000000
==== e(   1) =    -7.79481 eV ==== 
     psi = 0.439*[#   1]+0.439*[#   5]+0.028*[#   9]+0.026*[#  15]+0.018*[#  10]+
          +0.018*[#  13]+0.013*[#  16]+0.013*[#  19]+
    |psi|^2 = 0.999
==== e(   2) =    -7.65634 eV ==== 
     psi = 0.462*[#   1]+0.462*[#   5]+0.018*[#  16]+0.018*[#  19]+0.017*[#  10]+
          +0.017*[#  13]+0.002*[#  15]+
    |psi|^2 = 0.997
==== e(   3) =     4.19644 eV ==== 
     psi = 0.113*[#   2]+0.113*[#   3]+0.113*[#   4]+0.113*[#   6]+0.113*[#   7]+
          +0.113*[#   8]+0.113*[#   9]+0.052*[#  11]+0.052*[#  12]+0.052*[#  14]+
          +0.011*[#  10]+0.011*[#  13]+0.005*[#  16]+0.005*[#  19]+0.004*[#  17]+
          +0.004*[#  18]+0.004*[#  20]+0.002*[#   1]+0.002*[#   5]+
    |psi|^2 = 0.997
==== e(   4) =     4.33441 eV ==== 
     psi = 0.118*[#   2]+0.118*[#   3]+0.118*[#   4]+0.118*[#   6]+0.118*[#   7]+
          +0.118*[#   8]+0.109*[#  15]+0.029*[#  10]+0.029*[#  13]+0.023*[#  17]+
          +0.023*[#  18]+0.023*[#  20]+0.015*[#  11]+0.015*[#  12]+0.015*[#  14]+
          +0.002*[#  16]+0.002*[#  19]+0.001*[#   1]+0.001*[#   5]+
    |psi|^2 = 0.994
==== e(   5) =     5.19954 eV ==== 
     psi = 0.112*[#   2]+0.112*[#   3]+0.112*[#   4]+0.112*[#   6]+0.112*[#   7]+
          +0.112*[#   8]+0.072*[#  10]+0.072*[#  13]+0.042*[#  11]+0.042*[#  12]+
          +0.042*[#  14]+0.008*[#  17]+0.008*[#  18]+0.008*[#  20]+0.004*[#  16]+
          +0.004*[#  19]+0.002*[#   1]+0.002*[#   5]+0.001*[#   9]+
    |psi|^2 = 0.981
==== e(   6) =     5.66161 eV ==== 
     psi = 0.152*[#  10]+0.152*[#  13]+0.102*[#   2]+0.102*[#   3]+0.102*[#   4]+
          +0.102*[#   6]+0.102*[#   7]+0.102*[#   8]+0.024*[#  16]+0.024*[#  19]+
          +0.005*[#  11]+0.005*[#  12]+0.005*[#  14]+0.003*[#  17]+0.003*[#  18]+
          +0.003*[#  20]+0.002*[#   9]+
    |psi|^2 = 0.994
==== e(   7) =     5.87379 eV ==== 
     psi = 0.125*[#   2]+0.125*[#   3]+0.125*[#   4]+0.125*[#   6]+0.125*[#   7]+
          +0.125*[#   8]+0.032*[#  11]+0.032*[#  12]+0.032*[#  14]+0.024*[#  17]+
          +0.024*[#  18]+0.024*[#  20]+0.017*[#  16]+0.017*[#  19]+0.013*[#  10]+
          +0.013*[#  13]+0.002*[#  15]+
    |psi|^2 = 0.983
==== e(   8) =     6.10628 eV ==== 
     psi = 0.119*[#   2]+0.119*[#   3]+0.119*[#   4]+0.119*[#   6]+0.119*[#   7]+
          +0.119*[#   8]+0.047*[#  16]+0.047*[#  19]+0.043*[#  10]+0.043*[#  13]+
          +0.023*[#  11]+0.023*[#  12]+0.023*[#  14]+0.007*[#  17]+0.007*[#  18]+
          +0.007*[#  20]+0.005*[#   9]+0.003*[#   1]+0.003*[#   5]+
    |psi|^2 = 0.991
==== e(   9) =     8.08701 eV ==== 
     psi = 0.266*[#  11]+0.266*[#  12]+0.266*[#  14]+0.022*[#   2]+0.022*[#   3]+
          +0.022*[#   4]+0.022*[#   6]+0.022*[#   7]+0.022*[#   8]+0.020*[#  10]+
          +0.020*[#  13]+0.004*[#  16]+0.004*[#  19]+0.002*[#   1]+0.002*[#   5]+
          +0.002*[#  17]+0.002*[#  18]+0.002*[#  20]+
    |psi|^2 = 0.991
==== e(  10) =     8.67114 eV ==== 
     psi = 0.281*[#  11]+0.281*[#  12]+0.281*[#  14]+0.052*[#  10]+0.052*[#  13]+
          +0.006*[#   2]+0.006*[#   3]+0.006*[#   4]+0.006*[#   6]+0.006*[#   7]+
          +0.006*[#   8]+0.004*[#  16]+0.004*[#  19]+0.003*[#   9]+
    |psi|^2 = 0.996
==== e(  11) =     8.89576 eV ==== 
     psi = 0.246*[#  11]+0.246*[#  12]+0.246*[#  14]+0.036*[#   2]+0.036*[#   3]+
          +0.036*[#   4]+0.036*[#   6]+0.036*[#   7]+0.036*[#   8]+0.024*[#   9]+
          +0.002*[#  10]+0.002*[#  13]+0.001*[#  15]+
    |psi|^2 = 0.990
==== e(  12) =     9.64000 eV ==== 
     psi = 0.283*[#  10]+0.283*[#  13]+0.043*[#   2]+0.043*[#   3]+0.043*[#   4]+
          +0.043*[#   6]+0.043*[#   7]+0.043*[#   8]+0.021*[#   1]+0.021*[#   5]+
          +0.019*[#  16]+0.019*[#  19]+0.018*[#  11]+0.018*[#  12]+0.018*[#  14]+
          +0.015*[#  15]+
    |psi|^2 = 0.982
==== e(  13) =     9.82387 eV ==== 
     psi = 0.269*[#  10]+0.269*[#  13]+0.054*[#   2]+0.054*[#   3]+0.054*[#   4]+
          +0.054*[#   6]+0.054*[#   7]+0.054*[#   8]+0.015*[#  11]+0.015*[#  12]+
          +0.015*[#  14]+0.014*[#   1]+0.014*[#   5]+0.012*[#  16]+0.012*[#  19]+
          +0.007*[#  17]+0.007*[#  18]+0.007*[#  20]+0.004*[#  15]+
    |psi|^2 = 0.980
==== e(  14) =    11.26148 eV ==== 
     psi = 0.286*[#  17]+0.286*[#  18]+0.286*[#  20]+0.018*[#   2]+0.018*[#   3]+
          +0.018*[#   4]+0.018*[#   6]+0.018*[#   7]+0.018*[#   8]+0.005*[#  16]+
          +0.005*[#  19]+0.003*[#  10]+0.003*[#  13]+0.003*[#  15]+0.002*[#  11]+
          +0.002*[#  12]+0.002*[#  14]+
    |psi|^2 = 0.995
==== e(  15) =    12.11973 eV ==== 
     psi = 0.316*[#  17]+0.316*[#  18]+0.316*[#  20]+0.008*[#   2]+0.008*[#   3]+
          +0.008*[#   4]+0.008*[#   6]+0.008*[#   7]+0.008*[#   8]+
    |psi|^2 = 0.999
==== e(  16) =    12.39518 eV ==== 
     psi = 0.311*[#  17]+0.311*[#  18]+0.311*[#  20]+0.009*[#   2]+0.009*[#   3]+
          +0.009*[#   4]+0.009*[#   6]+0.009*[#   7]+0.009*[#   8]+0.005*[#  15]+
          +0.002*[#  16]+0.002*[#  19]+
    |psi|^2 = 0.999
==== e(  17) =    13.27341 eV ==== 
     psi = 0.404*[#  16]+0.404*[#  19]+0.027*[#   9]+0.020*[#   2]+0.020*[#   3]+
          +0.020*[#   4]+0.020*[#   6]+0.020*[#   7]+0.020*[#   8]+0.012*[#   1]+
          +0.012*[#   5]+0.004*[#  10]+0.004*[#  13]+0.001*[#  17]+0.001*[#  18]+
          +0.001*[#  20]+
    |psi|^2 = 0.989
==== e(  18) =    13.38489 eV ==== 
     psi = 0.405*[#  16]+0.405*[#  19]+0.021*[#   2]+0.021*[#   3]+0.021*[#   4]+
          +0.021*[#   6]+0.021*[#   7]+0.021*[#   8]+0.019*[#   1]+0.019*[#   5]+
          +0.002*[#  17]+0.002*[#  18]+0.002*[#  20]+0.002*[#  10]+0.002*[#  13]+
    |psi|^2 = 0.983
==== e(  19) =    17.70579 eV ==== 
     psi = 0.452*[#   9]+0.243*[#  15]+0.028*[#   2]+0.028*[#   3]+0.028*[#   4]+
          +0.028*[#   6]+0.028*[#   7]+0.028*[#   8]+0.014*[#   1]+0.014*[#   5]+
          +0.007*[#  16]+0.007*[#  19]+
    |psi|^2 = 0.907
==== e(  20) =    18.87385 eV ==== 
     psi = 0.102*[#  15]+0.060*[#   9]+0.008*[#   2]+0.008*[#   3]+0.008*[#   4]+
          +0.008*[#   6]+0.008*[#   7]+0.008*[#   8]+0.001*[#   1]+0.001*[#   5]+
    |psi|^2 = 0.214
==== e(  21) =    19.82465 eV ==== 
     psi = 0.352*[#  15]+0.265*[#   9]+0.019*[#   2]+0.019*[#   3]+0.019*[#   4]+
          +0.019*[#   6]+0.019*[#   7]+0.019*[#   8]+0.002*[#  16]+0.002*[#  19]+
    |psi|^2 = 0.736
==== e(  22) =    21.09173 eV ==== 
     psi = 0.116*[#  15]+0.005*[#   2]+0.005*[#   3]+0.005*[#   4]+0.005*[#   6]+
          +0.005*[#   7]+0.005*[#   8]+0.002*[#   9]+0.001*[#   1]+0.001*[#   5]+
    |psi|^2 = 0.152
==== e(  23) =    21.48848 eV ==== 
     psi = 0.003*[#   2]+0.003*[#   3]+0.003*[#   4]+0.003*[#   6]+0.003*[#   7]+
          +0.003*[#   8]+0.001*[#  16]+0.001*[#  19]+
    |psi|^2 = 0.024
==== e(  24) =    21.84836 eV ==== 
     psi = 0.002*[#   2]+0.002*[#   3]+0.002*[#   4]+0.002*[#   6]+0.002*[#   7]+
          +0.002*[#   8]+
    |psi|^2 = 0.016

 k =  -0.6250000000  0.3750000000  0.1250000000
==== e(   1) =    -7.79980 eV ==== 
     psi = 0.447*[#   1]+0.447*[#   5]+0.030*[#   9]+0.027*[#  15]+0.013*[#  10]+
          +0.013*[#  13]+0.009*[#  16]+0.009*[#  19]+
    |psi|^2 = 0.998
==== e(   2) =    -7.65244 eV ==== 
     psi = 0.453*[#   1]+0.453*[#   5]+0.022*[#  10]+0.022*[#  13]+0.021*[#  16]+
          +0.021*[#  19]+0.004*[#  15]+0.002*[#   9]+
    |psi|^2 = 0.998
==== e(   3) =     4.07867 eV ==== 
     psi = 0.109*[#   2]+0.109*[#   3]+0.109*[#   4]+0.109*[#   6]+0.109*[#   7]+
          +0.109*[#   8]+0.084*[#   9]+0.050*[#  15]+0.039*[#  11]+0.039*[#  12]+
          +0.039*[#  14]+0.020*[#  10]+0.020*[#  13]+0.011*[#  17]+0.011*[#  18]+
          +0.011*[#  20]+0.006*[#  16]+0.006*[#  19]+0.004*[#   1]+0.004*[#   5]+
    |psi|^2 = 0.998
==== e(   4) =     4.60894 eV ==== 
     psi = 0.128*[#   2]+0.128*[#   3]+0.128*[#   4]+0.128*[#   6]+0.128*[#   7]+
          +0.128*[#   8]+0.047*[#  15]+0.027*[#  11]+0.027*[#  12]+0.027*[#  14]+
          +0.017*[#  17]+0.017*[#  18]+0.017*[#  20]+0.014*[#   9]+0.011*[#  10]+
          +0.011*[#  13]+0.001*[#  16]+0.001*[#  19]+
    |psi|^2 = 0.986
==== e(   5) =     5.16892 eV ==== 
     psi = 0.110*[#   2]+0.110*[#   3]+0.110*[#   4]+0.110*[#   6]+0.110*[#   7]+
          +0.110*[#   8]+0.064*[#  10]+0.064*[#  13]+0.054*[#  11]+0.054*[#  12]+
          +0.054*[#  14]+0.005*[#  17]+0.005*[#  18]+0.005*[#  20]+0.004*[#   9]+
          +0.003*[#   1]+0.003*[#   5]+0.002*[#  15]+0.002*[#  16]+0.002*[#  19]+
    |psi|^2 = 0.983
==== e(   6) =     5.64810 eV ==== 
     psi = 0.162*[#  10]+0.162*[#  13]+0.101*[#   2]+0.101*[#   3]+0.101*[#   4]+
          +0.101*[#   6]+0.101*[#   7]+0.101*[#   8]+0.012*[#  16]+0.012*[#  19]+
          +0.006*[#  17]+0.006*[#  18]+0.006*[#  20]+0.006*[#  11]+0.006*[#  12]+
          +0.006*[#  14]+0.002*[#   9]+
    |psi|^2 = 0.994
==== e(   7) =     5.74645 eV ==== 
     psi = 0.124*[#   2]+0.124*[#   3]+0.124*[#   4]+0.124*[#   6]+0.124*[#   7]+
          +0.124*[#   8]+0.034*[#  10]+0.034*[#  13]+0.029*[#  16]+0.029*[#  19]+
          +0.023*[#  17]+0.023*[#  18]+0.023*[#  20]+0.013*[#  11]+0.013*[#  12]+
          +0.013*[#  14]+0.003*[#   9]+0.002*[#  15]+
    |psi|^2 = 0.984
==== e(   8) =     6.07009 eV ==== 
     psi = 0.119*[#   2]+0.119*[#   3]+0.119*[#   4]+0.119*[#   6]+0.119*[#   7]+
          +0.119*[#   8]+0.051*[#  16]+0.051*[#  19]+0.033*[#  10]+0.033*[#  13]+
          +0.027*[#  11]+0.027*[#  12]+0.027*[#  14]+0.008*[#   9]+0.006*[#  17]+
          +0.006*[#  18]+0.006*[#  20]+0.002*[#   1]+0.002*[#   5]+
    |psi|^2 = 0.992
==== e(   9) =     8.11063 eV ==== 
     psi = 0.266*[#  11]+0.266*[#  12]+0.266*[#  14]+0.022*[#   2]+0.022*[#   3]+
          +0.022*[#   4]+0.022*[#   6]+0.022*[#   7]+0.022*[#   8]+0.022*[#  10]+
          +0.022*[#  13]+0.003*[#  16]+0.003*[#  19]+0.002*[#   1]+0.002*[#   5]+
    |psi|^2 = 0.990
==== e(  10) =     8.67426 eV ==== 
     psi = 0.279*[#  11]+0.279*[#  12]+0.279*[#  14]+0.053*[#  10]+0.053*[#  13]+
          +0.007*[#   2]+0.007*[#   3]+0.007*[#   4]+0.007*[#   6]+0.007*[#   7]+
          +0.007*[#   8]+0.004*[#  16]+0.004*[#  19]+0.002*[#   9]+0.001*[#   1]+
          +0.001*[#   5]+
    |psi|^2 = 0.996
==== e(  11) =     8.88998 eV ==== 
     psi = 0.253*[#  11]+0.253*[#  12]+0.253*[#  14]+0.034*[#   2]+0.034*[#   3]+
          +0.034*[#   4]+0.034*[#   6]+0.034*[#   7]+0.034*[#   8]+0.025*[#   9]+
    |psi|^2 = 0.989
==== e(  12) =     9.66819 eV ==== 
     psi = 0.280*[#  10]+0.280*[#  13]+0.046*[#   2]+0.046*[#   3]+0.046*[#   4]+
          +0.046*[#   6]+0.046*[#   7]+0.046*[#   8]+0.026*[#  15]+0.019*[#  11]+
          +0.019*[#  12]+0.019*[#  14]+0.017*[#   1]+0.017*[#   5]+0.007*[#  16]+
          +0.007*[#  19]+0.004*[#  17]+0.004*[#  18]+0.004*[#  20]+
    |psi|^2 = 0.984
==== e(  13) =     9.83025 eV ==== 
     psi = 0.265*[#  10]+0.265*[#  13]+0.051*[#   2]+0.051*[#   3]+0.051*[#   4]+
          +0.051*[#   6]+0.051*[#   7]+0.051*[#   8]+0.029*[#  16]+0.029*[#  19]+
          +0.018*[#   1]+0.018*[#   5]+0.013*[#  11]+0.013*[#  12]+0.013*[#  14]+
          +0.003*[#  17]+0.003*[#  18]+0.003*[#  20]+0.002*[#  15]+
    |psi|^2 = 0.981
==== e(  14) =    11.24656 eV ==== 
     psi = 0.288*[#  17]+0.288*[#  18]+0.288*[#  20]+0.019*[#   2]+0.019*[#   3]+
          +0.019*[#   4]+0.019*[#   6]+0.019*[#   7]+0.019*[#   8]+0.005*[#  16]+
          +0.005*[#  19]+0.002*[#  10]+0.002*[#  13]+0.002*[#  15]+
    |psi|^2 = 0.995
==== e(  15) =    12.12570 eV ==== 
     psi = 0.316*[#  17]+0.316*[#  18]+0.316*[#  20]+0.008*[#   2]+0.008*[#   3]+
          +0.008*[#   4]+0.008*[#   6]+0.008*[#   7]+0.008*[#   8]+
    |psi|^2 = 0.999
==== e(  16) =    12.39725 eV ==== 
     psi = 0.312*[#  17]+0.312*[#  18]+0.312*[#  20]+0.009*[#   2]+0.009*[#   3]+
          +0.009*[#   4]+0.009*[#   6]+0.009*[#   7]+0.009*[#   8]+0.004*[#  15]+
          +0.001*[#  16]+0.001*[#  19]+
    |psi|^2 = 0.999
==== e(  17) =    13.18698 eV ==== 
     psi = 0.415*[#  16]+0.415*[#  19]+0.035*[#   9]+0.016*[#   2]+0.016*[#   3]+
          +0.016*[#   4]+0.016*[#   6]+0.016*[#   7]+0.016*[#   8]+0.011*[#   1]+
          +0.011*[#   5]+0.002*[#  10]+0.002*[#  13]+0.001*[#  17]+0.001*[#  18]+
          +0.001*[#  20]+
    |psi|^2 = 0.990
==== e(  18) =    13.52562 eV ==== 
     psi = 0.388*[#  16]+0.388*[#  19]+0.026*[#   2]+0.026*[#   3]+0.026*[#   4]+
          +0.026*[#   6]+0.026*[#   7]+0.026*[#   8]+0.017*[#   1]+0.017*[#   5]+
          +0.006*[#  10]+0.006*[#  13]+0.002*[#  17]+0.002*[#  18]+0.002*[#  20]+
    |psi|^2 = 0.985
==== e(  19) =    17.42934 eV ==== 
     psi = 0.364*[#   9]+0.209*[#  15]+0.027*[#   2]+0.027*[#   3]+0.027*[#   4]+
          +0.027*[#   6]+0.027*[#   7]+0.027*[#   8]+0.014*[#   1]+0.014*[#   5]+
          +0.008*[#  16]+0.008*[#  19]+
    |psi|^2 = 0.778
==== e(  20) =    18.94335 eV ==== 
     psi = 0.359*[#  15]+0.326*[#   9]+0.015*[#   2]+0.015*[#   3]+0.015*[#   4]+
          +0.015*[#   6]+0.015*[#   7]+0.015*[#   8]+0.003*[#   1]+0.003*[#   5]+
          +0.002*[#  16]+0.002*[#  19]+
    |psi|^2 = 0.789
==== e(  21) =    20.22383 eV ==== 
     psi = 0.061*[#   9]+0.038*[#  15]+0.007*[#   2]+0.007*[#   3]+0.007*[#   4]+
          +0.007*[#   6]+0.007*[#   7]+0.007*[#   8]+0.001*[#  16]+0.001*[#  19]+
    |psi|^2 = 0.143
==== e(  22) =    20.83612 eV ==== 
     psi = 0.172*[#  15]+0.022*[#   9]+0.009*[#   2]+0.009*[#   3]+0.009*[#   4]+
          +0.009*[#   6]+0.009*[#   7]+0.009*[#   8]+0.002*[#   1]+0.002*[#   5]+
    |psi|^2 = 0.255
==== e(  23) =    21.20324 eV ==== 
     psi = 0.029*[#  15]+0.004*[#   2]+0.004*[#   3]+0.004*[#   4]+0.004*[#   6]+
          +0.004*[#   7]+0.004*[#   8]+
    |psi|^2 = 0.061
==== e(  24) =    22.23613 eV ==== 
     psi = 0.007*[#  15]+0.002*[#   2]+0.002*[#   3]+0.002*[#   4]+0.002*[#   6]+
          +0.002*[#   7]+0.002*[#   8]+0.001*[#   9]+
    |psi|^2 = 0.022

 k =  -0.4375000000  0.3125000000  0.0625000000
==== e(   1) =    -8.11804 eV ==== 
     psi = 0.397*[#   1]+0.397*[#   5]+0.095*[#   9]+0.092*[#  15]+0.004*[#  10]+
          +0.004*[#  13]+0.003*[#  16]+0.003*[#  19]+
    |psi|^2 = 0.999
==== e(   2) =    -7.63853 eV ==== 
     psi = 0.458*[#   1]+0.458*[#   5]+0.022*[#  10]+0.022*[#  13]+0.019*[#  16]+
          +0.019*[#  19]+
    |psi|^2 = 0.998
==== e(   3) =     4.52706 eV ==== 
     psi = 0.104*[#   2]+0.104*[#   3]+0.104*[#   4]+0.104*[#   6]+0.104*[#   7]+
          +0.104*[#   8]+0.093*[#  15]+0.055*[#  10]+0.055*[#  13]+0.036*[#  11]+
          +0.036*[#  12]+0.036*[#  14]+0.010*[#   1]+0.010*[#   5]+0.009*[#  17]+
          +0.009*[#  18]+0.009*[#  20]+0.009*[#   9]+0.002*[#  16]+0.002*[#  19]+
    |psi|^2 = 0.996
==== e(   4) =     4.65711 eV ==== 
     psi = 0.116*[#   2]+0.116*[#   3]+0.116*[#   4]+0.116*[#   6]+0.116*[#   7]+
          +0.116*[#   8]+0.103*[#   9]+0.034*[#  11]+0.034*[#  12]+0.034*[#  14]+
          +0.016*[#  17]+0.016*[#  18]+0.016*[#  20]+0.012*[#  16]+0.012*[#  19]+
          +0.008*[#   1]+0.008*[#   5]+0.002*[#  10]+0.002*[#  13]+
    |psi|^2 = 0.994
==== e(   5) =     5.06499 eV ==== 
     psi = 0.125*[#   2]+0.125*[#   3]+0.125*[#   4]+0.125*[#   6]+0.125*[#   7]+
          +0.125*[#   8]+0.045*[#  11]+0.045*[#  12]+0.045*[#  14]+0.026*[#  10]+
          +0.026*[#  13]+0.012*[#  17]+0.012*[#  18]+0.012*[#  20]+0.001*[#  15]+
    |psi|^2 = 0.978
==== e(   6) =     5.65546 eV ==== 
     psi = 0.161*[#  10]+0.161*[#  13]+0.100*[#   2]+0.100*[#   3]+0.100*[#   4]+
          +0.100*[#   6]+0.100*[#   7]+0.100*[#   8]+0.024*[#  16]+0.024*[#  19]+
          +0.007*[#   9]+0.003*[#  11]+0.003*[#  12]+0.003*[#  14]+
    |psi|^2 = 0.995
==== e(   7) =     6.09428 eV ==== 
     psi = 0.108*[#  10]+0.108*[#  13]+0.106*[#   2]+0.106*[#   3]+0.106*[#   4]+
          +0.106*[#   6]+0.106*[#   7]+0.106*[#   8]+0.051*[#  16]+0.051*[#  19]+
          +0.006*[#  17]+0.006*[#  18]+0.006*[#  20]+0.005*[#  11]+0.005*[#  12]+
          +0.005*[#  14]+0.003*[#   1]+0.003*[#   5]+
    |psi|^2 = 0.994
==== e(   8) =     6.31979 eV ==== 
     psi = 0.113*[#   2]+0.113*[#   3]+0.113*[#   4]+0.113*[#   6]+0.113*[#   7]+
          +0.113*[#   8]+0.070*[#  11]+0.070*[#  12]+0.070*[#  14]+0.024*[#  17]+
          +0.024*[#  18]+0.024*[#  20]+0.010*[#  16]+0.010*[#  19]+0.004*[#  10]+
          +0.004*[#  13]+0.003*[#   9]+
    |psi|^2 = 0.991
==== e(   9) =     8.16483 eV ==== 
     psi = 0.279*[#  11]+0.279*[#  12]+0.279*[#  14]+0.019*[#   2]+0.019*[#   3]+
          +0.019*[#   4]+0.019*[#   6]+0.019*[#   7]+0.019*[#   8]+0.007*[#  10]+
          +0.007*[#  13]+0.005*[#   9]+0.005*[#  15]+0.004*[#  17]+0.004*[#  18]+
          +0.004*[#  20]+0.001*[#  16]+0.001*[#  19]+
    |psi|^2 = 0.992
==== e(  10) =     8.69780 eV ==== 
     psi = 0.275*[#  11]+0.275*[#  12]+0.275*[#  14]+0.031*[#  10]+0.031*[#  13]+
          +0.014*[#   2]+0.014*[#   3]+0.014*[#   4]+0.014*[#   6]+0.014*[#   7]+
          +0.014*[#   8]+0.010*[#  16]+0.010*[#  19]+0.005*[#   9]+0.001*[#  15]+
    |psi|^2 = 0.996
==== e(  11) =     8.84067 eV ==== 
     psi = 0.226*[#  11]+0.226*[#  12]+0.226*[#  14]+0.042*[#   2]+0.042*[#   3]+
          +0.042*[#   4]+0.042*[#   6]+0.042*[#   7]+0.042*[#   8]+0.013*[#  10]+
          +0.013*[#  13]+0.007*[#  15]+0.005*[#   9]+0.003*[#   1]+0.003*[#   5]+
          +0.003*[#  16]+0.003*[#  19]+0.001*[#  17]+0.001*[#  18]+0.001*[#  20]+
    |psi|^2 = 0.986
==== e(  12) =     9.46997 eV ==== 
     psi = 0.281*[#  10]+0.281*[#  13]+0.044*[#   2]+0.044*[#   3]+0.044*[#   4]+
          +0.044*[#   6]+0.044*[#   7]+0.044*[#   8]+0.034*[#  15]+0.020*[#  11]+
          +0.020*[#  12]+0.020*[#  14]+0.016*[#  16]+0.016*[#  19]+0.014*[#   1]+
          +0.014*[#   5]+0.003*[#  17]+0.003*[#  18]+0.003*[#  20]+
    |psi|^2 = 0.989
==== e(  13) =     9.86507 eV ==== 
     psi = 0.263*[#  10]+0.263*[#  13]+0.053*[#   2]+0.053*[#   3]+0.053*[#   4]+
          +0.053*[#   6]+0.053*[#   7]+0.053*[#   8]+0.035*[#  16]+0.035*[#  19]+
          +0.021*[#   1]+0.021*[#   5]+0.005*[#  17]+0.005*[#  18]+0.005*[#  20]+
          +0.004*[#  11]+0.004*[#  12]+0.004*[#  14]+
    |psi|^2 = 0.983
==== e(  14) =    11.37566 eV ==== 
     psi = 0.290*[#  17]+0.290*[#  18]+0.290*[#  20]+0.017*[#   2]+0.017*[#   3]+
          +0.017*[#   4]+0.017*[#   6]+0.017*[#   7]+0.017*[#   8]+0.004*[#  15]+
          +0.004*[#  16]+0.004*[#  19]+0.003*[#  10]+0.003*[#  13]+
    |psi|^2 = 0.996
==== e(  15) =    11.85572 eV ==== 
     psi = 0.308*[#  17]+0.308*[#  18]+0.308*[#  20]+0.012*[#   2]+0.012*[#   3]+
          +0.012*[#   4]+0.012*[#   6]+0.012*[#   7]+0.012*[#   8]+
    |psi|^2 = 0.998
==== e(  16) =    12.30660 eV ==== 
     psi = 0.310*[#  17]+0.310*[#  18]+0.310*[#  20]+0.011*[#   9]+0.007*[#   2]+
          +0.007*[#   3]+0.007*[#   4]+0.007*[#   6]+0.007*[#   7]+0.007*[#   8]+
          +0.003*[#  16]+0.003*[#  19]+0.003*[#  15]+0.001*[#   1]+0.001*[#   5]+
    |psi|^2 = 0.999
==== e(  17) =    13.07704 eV ==== 
     psi = 0.391*[#  16]+0.391*[#  19]+0.057*[#   9]+0.017*[#   2]+0.017*[#   3]+
          +0.017*[#   4]+0.017*[#   6]+0.017*[#   7]+0.017*[#   8]+0.014*[#   1]+
          +0.014*[#   5]+0.006*[#  10]+0.006*[#  13]+0.004*[#  17]+0.004*[#  18]+
          +0.004*[#  20]+
    |psi|^2 = 0.992
==== e(  18) =    13.48617 eV ==== 
     psi = 0.386*[#  16]+0.386*[#  19]+0.029*[#   2]+0.029*[#   3]+0.029*[#   4]+
          +0.029*[#   6]+0.029*[#   7]+0.029*[#   8]+0.013*[#   1]+0.013*[#   5]+
          +0.004*[#  10]+0.004*[#  13]+0.003*[#   9]+0.003*[#  15]+0.002*[#  17]+
          +0.002*[#  18]+0.002*[#  20]+
    |psi|^2 = 0.991
==== e(  19) =    15.84895 eV ==== 
     psi = 0.305*[#   9]+0.256*[#  15]+0.050*[#   1]+0.050*[#   5]+0.040*[#   2]+
          +0.040*[#   3]+0.040*[#   4]+0.040*[#   6]+0.040*[#   7]+0.040*[#   8]+
          +0.022*[#  16]+0.022*[#  19]+0.001*[#  10]+0.001*[#  13]+
    |psi|^2 = 0.950
==== e(  20) =    19.59195 eV ==== 
     psi = 0.422*[#  15]+0.348*[#   9]+0.019*[#   2]+0.019*[#   3]+0.019*[#   4]+
          +0.019*[#   6]+0.019*[#   7]+0.019*[#   8]+0.004*[#  16]+0.004*[#  19]+
          +0.001*[#  10]+0.001*[#  13]+
    |psi|^2 = 0.893
==== e(  21) =    19.83484 eV ==== 
     psi = 0.036*[#  15]+0.033*[#   9]+0.006*[#   2]+0.006*[#   3]+0.006*[#   4]+
          +0.006*[#   6]+0.006*[#   7]+0.006*[#   8]+
    |psi|^2 = 0.107
==== e(  22) =    20.85815 eV ==== 
     psi = 0.004*[#   2]+0.004*[#   3]+0.004*[#   4]+0.004*[#   6]+0.004*[#   7]+
          +0.004*[#   8]+0.001*[#  15]+
    |psi|^2 = 0.032
==== e(  23) =    22.18980 eV ==== 
     psi = 0.014*[#  15]+0.002*[#   2]+0.002*[#   3]+0.002*[#   4]+0.002*[#   6]+
          +0.002*[#   7]+0.002*[#   8]+
    |psi|^2 = 0.032
==== e(  24) =    23.65517 eV ==== 
     psi = 0.016*[#  15]+0.002*[#   2]+0.002*[#   3]+0.002*[#   4]+0.002*[#   6]+
          +0.002*[#   7]+0.002*[#   8]+0.002*[#   9]+0.001*[#  16]+0.001*[#  19]+
    |psi|^2 = 0.035

 k =  -0.2500000000  0.2500000000  0.0000000000
==== e(   1) =    -8.48486 eV ==== 
     psi = 0.344*[#   1]+0.344*[#   5]+0.156*[#   9]+0.152*[#  15]+
    |psi|^2 = 1.000
==== e(   2) =    -7.67068 eV ==== 
     psi = 0.471*[#   1]+0.471*[#   5]+0.014*[#  10]+0.014*[#  13]+0.012*[#  16]+
          +0.012*[#  19]+
    |psi|^2 = 0.996
==== e(   3) =     3.91027 eV ==== 
     psi = 0.111*[#   2]+0.111*[#   3]+0.111*[#   4]+0.111*[#   6]+0.111*[#   7]+
          +0.111*[#   8]+0.061*[#   9]+0.060*[#  15]+0.049*[#  11]+0.049*[#  12]+
          +0.049*[#  14]+0.020*[#  17]+0.020*[#  18]+0.020*[#  20]+0.002*[#  10]+
          +0.002*[#  13]+
    |psi|^2 = 0.998
==== e(   4) =     5.27285 eV ==== 
     psi = 0.112*[#  10]+0.112*[#  13]+0.104*[#   2]+0.104*[#   3]+0.104*[#   4]+
          +0.104*[#   6]+0.104*[#   7]+0.104*[#   8]+0.031*[#  11]+0.031*[#  12]+
          +0.031*[#  14]+0.008*[#  16]+0.008*[#  19]+0.007*[#  17]+0.007*[#  18]+
          +0.007*[#  20]+0.001*[#   1]+0.001*[#   5]+
    |psi|^2 = 0.983
==== e(   5) =     5.50707 eV ==== 
     psi = 0.169*[#  10]+0.169*[#  13]+0.094*[#   2]+0.094*[#   3]+0.094*[#   4]+
          +0.094*[#   6]+0.094*[#   7]+0.094*[#   8]+0.021*[#   9]+0.019*[#  15]+
          +0.009*[#   1]+0.009*[#   5]+0.008*[#  17]+0.008*[#  18]+0.008*[#  20]+
          +0.004*[#  16]+0.004*[#  19]+0.001*[#  11]+0.001*[#  12]+0.001*[#  14]+
    |psi|^2 = 0.998
==== e(   6) =     5.84183 eV ==== 
     psi = 0.110*[#   2]+0.110*[#   3]+0.110*[#   4]+0.110*[#   6]+0.110*[#   7]+
          +0.110*[#   8]+0.042*[#   9]+0.041*[#  16]+0.041*[#  19]+0.038*[#  11]+
          +0.038*[#  12]+0.038*[#  14]+0.019*[#  15]+0.019*[#  10]+0.019*[#  13]+
          +0.018*[#   1]+0.018*[#   5]+0.002*[#  17]+0.002*[#  18]+0.002*[#  20]+
    |psi|^2 = 0.996
==== e(   7) =     6.61616 eV ==== 
     psi = 0.104*[#   2]+0.104*[#   3]+0.104*[#   4]+0.104*[#   6]+0.104*[#   7]+
          +0.104*[#   8]+0.103*[#  10]+0.103*[#  13]+0.051*[#  16]+0.051*[#  19]+
          +0.022*[#  11]+0.022*[#  12]+0.022*[#  14]+0.001*[#   1]+0.001*[#   5]+
    |psi|^2 = 0.997
==== e(   8) =     6.95477 eV ==== 
     psi = 0.114*[#   2]+0.114*[#   3]+0.114*[#   4]+0.114*[#   6]+0.114*[#   7]+
          +0.114*[#   8]+0.075*[#  11]+0.075*[#  12]+0.075*[#  14]+0.023*[#  17]+
          +0.023*[#  18]+0.023*[#  20]+0.007*[#  16]+0.007*[#  19]+
    |psi|^2 = 0.992
==== e(   9) =     8.15804 eV ==== 
     psi = 0.290*[#  11]+0.290*[#  12]+0.290*[#  14]+0.013*[#   2]+0.013*[#   3]+
          +0.013*[#   4]+0.013*[#   6]+0.013*[#   7]+0.013*[#   8]+0.011*[#  15]+
          +0.010*[#   9]+0.008*[#  17]+0.008*[#  18]+0.008*[#  20]+0.002*[#  10]+
          +0.002*[#  13]+
    |psi|^2 = 0.997
==== e(  10) =     8.60832 eV ==== 
     psi = 0.283*[#  11]+0.283*[#  12]+0.283*[#  14]+0.017*[#   2]+0.017*[#   3]+
          +0.017*[#   4]+0.017*[#   6]+0.017*[#   7]+0.017*[#   8]+0.016*[#  15]+
          +0.006*[#  16]+0.006*[#  19]+0.003*[#   1]+0.003*[#   5]+0.003*[#   9]+
          +0.002*[#  17]+0.002*[#  18]+0.002*[#  20]+
    |psi|^2 = 0.996
==== e(  11) =     8.71686 eV ==== 
     psi = 0.199*[#  11]+0.199*[#  12]+0.199*[#  14]+0.059*[#   2]+0.059*[#   3]+
          +0.059*[#   4]+0.059*[#   6]+0.059*[#   7]+0.059*[#   8]+0.012*[#  10]+
          +0.012*[#  13]+0.005*[#  16]+0.005*[#  19]+0.001*[#   1]+0.001*[#   5]+
    |psi|^2 = 0.991
==== e(  12) =     9.38857 eV ==== 
     psi = 0.292*[#  10]+0.292*[#  13]+0.050*[#  16]+0.050*[#  19]+0.042*[#   2]+
          +0.042*[#   3]+0.042*[#   4]+0.042*[#   6]+0.042*[#   7]+0.042*[#   8]+
          +0.020*[#  15]+0.010*[#   1]+0.010*[#   5]+0.005*[#  17]+0.005*[#  18]+
          +0.005*[#  20]+0.003*[#   9]+
    |psi|^2 = 0.991
==== e(  13) =     9.91704 eV ==== 
     psi = 0.251*[#  10]+0.251*[#  13]+0.068*[#   2]+0.068*[#   3]+0.068*[#   4]+
          +0.068*[#   6]+0.068*[#   7]+0.068*[#   8]+0.012*[#  17]+0.012*[#  18]+
          +0.012*[#  20]+0.011*[#   1]+0.011*[#   5]+0.003*[#  11]+0.003*[#  12]+
          +0.003*[#  14]+0.003*[#  16]+0.003*[#  19]+
    |psi|^2 = 0.985
==== e(  14) =    11.50452 eV ==== 
     psi = 0.283*[#  17]+0.283*[#  18]+0.283*[#  20]+0.018*[#   2]+0.018*[#   3]+
          +0.018*[#   4]+0.018*[#   6]+0.018*[#   7]+0.018*[#   8]+0.013*[#  16]+
          +0.013*[#  19]+0.005*[#  10]+0.005*[#  13]+0.002*[#  11]+0.002*[#  12]+
          +0.002*[#  14]+
    |psi|^2 = 0.996
==== e(  15) =    11.63025 eV ==== 
     psi = 0.314*[#  17]+0.314*[#  18]+0.314*[#  20]+0.007*[#  15]+0.006*[#   2]+
          +0.006*[#   3]+0.006*[#   4]+0.006*[#   6]+0.006*[#   7]+0.006*[#   8]+
[...]
          +0.102*[#   8]+0.062*[#  15]+0.060*[#   9]+0.039*[#  16]+0.039*[#  19]+
          +0.035*[#  17]+0.035*[#  18]+0.035*[#  20]+0.019*[#   1]+0.019*[#   5]+
          +0.010*[#  10]+0.010*[#  13]+0.008*[#  11]+0.008*[#  12]+0.008*[#  14]+
    |psi|^2 = 0.997
==== e(   4) =     5.00234 eV ==== 
     psi = 0.099*[#   2]+0.099*[#   3]+0.099*[#   4]+0.099*[#   6]+0.099*[#   7]+
          +0.099*[#   8]+0.054*[#  16]+0.054*[#  19]+0.052*[#  15]+0.052*[#   9]+
          +0.041*[#  17]+0.041*[#  18]+0.041*[#  20]+0.022*[#   1]+0.022*[#   5]+
          +0.006*[#  11]+0.006*[#  12]+0.006*[#  14]+0.004*[#  10]+0.004*[#  13]+
    |psi|^2 = 0.997
==== e(   5) =     5.87197 eV ==== 
     psi = 0.235*[#  16]+0.235*[#  19]+0.080*[#   2]+0.080*[#   3]+0.080*[#   4]+
          +0.080*[#   6]+0.080*[#   7]+0.080*[#   8]+0.013*[#  17]+0.013*[#  18]+
          +0.013*[#  20]+0.004*[#  10]+0.004*[#  13]+
    |psi|^2 = 0.999
==== e(   6) =     6.20123 eV ==== 
     psi = 0.108*[#   2]+0.108*[#   3]+0.108*[#   4]+0.108*[#   6]+0.108*[#   7]+
          +0.108*[#   8]+0.083*[#  16]+0.083*[#  19]+0.026*[#  10]+0.026*[#  13]+
          +0.017*[#  11]+0.017*[#  12]+0.017*[#  14]+0.015*[#  17]+0.015*[#  18]+
          +0.015*[#  20]+0.010*[#   9]+0.007*[#   1]+0.007*[#   5]+0.006*[#  15]+
    |psi|^2 = 0.993
==== e(   7) =     6.56706 eV ==== 
     psi = 0.105*[#   2]+0.105*[#   3]+0.105*[#   4]+0.105*[#   6]+0.105*[#   7]+
          +0.105*[#   8]+0.088*[#  17]+0.088*[#  18]+0.088*[#  20]+0.020*[#  11]+
          +0.020*[#  12]+0.020*[#  14]+0.010*[#  10]+0.010*[#  13]+0.007*[#  15]+
          +0.004*[#  16]+0.004*[#  19]+0.002*[#   9]+
    |psi|^2 = 0.994
==== e(   8) =     6.80483 eV ==== 
     psi = 0.124*[#   2]+0.124*[#   3]+0.124*[#   4]+0.124*[#   6]+0.124*[#   7]+
          +0.124*[#   8]+0.069*[#  10]+0.069*[#  13]+0.031*[#  17]+0.031*[#  18]+
          +0.031*[#  20]+0.006*[#  11]+0.006*[#  12]+0.006*[#  14]+0.001*[#  16]+
          +0.001*[#  19]+
    |psi|^2 = 0.996
==== e(   9) =     8.14728 eV ==== 
     psi = 0.271*[#  17]+0.271*[#  18]+0.271*[#  20]+0.049*[#  16]+0.049*[#  19]+
          +0.015*[#  15]+0.009*[#   2]+0.009*[#   3]+0.009*[#   4]+0.009*[#   6]+
          +0.009*[#   7]+0.009*[#   8]+0.004*[#  11]+0.004*[#  12]+0.004*[#  14]+
          +0.003*[#   1]+0.003*[#   5]+
    |psi|^2 = 0.998
==== e(  10) =     8.36249 eV ==== 
     psi = 0.281*[#  17]+0.281*[#  18]+0.281*[#  20]+0.026*[#  16]+0.026*[#  19]+
          +0.012*[#   2]+0.012*[#   3]+0.012*[#   4]+0.012*[#   6]+0.012*[#   7]+
          +0.012*[#   8]+0.008*[#  10]+0.008*[#  13]+0.004*[#  11]+0.004*[#  12]+
          +0.004*[#  14]+
    |psi|^2 = 0.998
==== e(  11) =     8.69541 eV ==== 
     psi = 0.199*[#  17]+0.199*[#  18]+0.199*[#  20]+0.059*[#   2]+0.059*[#   3]+
          +0.059*[#   4]+0.059*[#   6]+0.059*[#   7]+0.059*[#   8]+0.017*[#  15]+
          +0.005*[#  10]+0.005*[#  13]+0.004*[#  16]+0.004*[#  19]+0.003*[#   1]+
          +0.003*[#   5]+0.001*[#   9]+
    |psi|^2 = 0.991
==== e(  12) =     9.54399 eV ==== 
     psi = 0.252*[#  16]+0.252*[#  19]+0.054*[#   2]+0.054*[#   3]+0.054*[#   4]+
          +0.054*[#   6]+0.054*[#   7]+0.054*[#   8]+0.027*[#   9]+0.027*[#  10]+
          +0.027*[#  13]+0.016*[#   1]+0.016*[#   5]+0.012*[#  17]+0.012*[#  18]+
          +0.012*[#  20]+0.003*[#  11]+0.003*[#  12]+0.003*[#  14]+0.001*[#  15]+
    |psi|^2 = 0.990
==== e(  13) =     9.98506 eV ==== 
     psi = 0.230*[#  16]+0.230*[#  19]+0.075*[#   2]+0.075*[#   3]+0.075*[#   4]+
          +0.075*[#   6]+0.075*[#   7]+0.075*[#   8]+0.018*[#  10]+0.018*[#  13]+
          +0.010*[#  11]+0.010*[#  12]+0.010*[#  14]+0.005*[#  17]+0.005*[#  18]+
          +0.005*[#  20]+
    |psi|^2 = 0.990
==== e(  14) =    11.42329 eV ==== 
     psi = 0.306*[#  11]+0.306*[#  12]+0.306*[#  14]+0.014*[#  10]+0.014*[#  13]+
          +0.009*[#   9]+0.005*[#   2]+0.005*[#   3]+0.005*[#   4]+0.005*[#   6]+
          +0.005*[#   7]+0.005*[#   8]+0.003*[#  17]+0.003*[#  18]+0.003*[#  20]+
          +0.001*[#   1]+0.001*[#   5]+
    |psi|^2 = 0.996
==== e(  15) =    11.62050 eV ==== 
     psi = 0.307*[#  11]+0.307*[#  12]+0.307*[#  14]+0.009*[#  10]+0.009*[#  13]+
          +0.008*[#   2]+0.008*[#   3]+0.008*[#   4]+0.008*[#   6]+0.008*[#   7]+
          +0.008*[#   8]+0.003*[#  16]+0.003*[#  19]+0.002*[#  17]+0.002*[#  18]+
          +0.002*[#  20]+
    |psi|^2 = 0.998
==== e(  16) =    11.82613 eV ==== 
     psi = 0.291*[#  11]+0.291*[#  12]+0.291*[#  14]+0.016*[#   2]+0.016*[#   3]+
          +0.016*[#   4]+0.016*[#   6]+0.016*[#   7]+0.016*[#   8]+0.016*[#   9]+
          +0.002*[#  15]+0.001*[#   1]+0.001*[#   5]+0.001*[#  17]+0.001*[#  18]+
          +0.001*[#  20]+
    |psi|^2 = 0.996
==== e(  17) =    12.86099 eV ==== 
     psi = 0.348*[#  10]+0.348*[#  13]+0.093*[#  15]+0.033*[#   1]+0.033*[#   5]+
          +0.019*[#   2]+0.019*[#   3]+0.019*[#   4]+0.019*[#   6]+0.019*[#   7]+
          +0.019*[#   8]+0.006*[#  11]+0.006*[#  12]+0.006*[#  14]+0.004*[#  16]+
          +0.004*[#  19]+
    |psi|^2 = 0.993
==== e(  18) =    13.29555 eV ==== 
     psi = 0.391*[#  10]+0.391*[#  13]+0.032*[#   2]+0.032*[#   3]+0.032*[#   4]+
          +0.032*[#   6]+0.032*[#   7]+0.032*[#   8]+0.004*[#  11]+0.004*[#  12]+
          +0.004*[#  14]+0.003*[#  16]+0.003*[#  19]+
    |psi|^2 = 0.994
==== e(  19) =    14.94817 eV ==== 
     psi = 0.273*[#  15]+0.252*[#   9]+0.075*[#   1]+0.075*[#   5]+0.040*[#   2]+
          +0.040*[#   3]+0.040*[#   4]+0.040*[#   6]+0.040*[#   7]+0.040*[#   8]+
          +0.025*[#  10]+0.025*[#  13]+0.001*[#  11]+0.001*[#  12]+0.001*[#  14]+
    |psi|^2 = 0.973
==== e(  20) =    15.60317 eV ==== 
     psi = 0.315*[#   9]+0.224*[#  15]+0.056*[#   1]+0.056*[#   5]+0.041*[#   2]+
          +0.041*[#   3]+0.041*[#   4]+0.041*[#   6]+0.041*[#   7]+0.041*[#   8]+
          +0.025*[#  10]+0.025*[#  13]+0.003*[#  16]+0.003*[#  19]+
    |psi|^2 = 0.957
==== e(  21) =    22.15165 eV ==== 
     psi = 0.010*[#   9]+0.009*[#  15]+0.003*[#   2]+0.003*[#   3]+0.003*[#   4]+
          +0.003*[#   6]+0.003*[#   7]+0.003*[#   8]+0.001*[#   1]+0.001*[#   5]+
    |psi|^2 = 0.042
==== e(  22) =    22.86565 eV ==== 
     psi = 0.007*[#   9]+0.001*[#   2]+0.001*[#   3]+0.001*[#   4]+0.001*[#   6]+
          +0.001*[#   7]+0.001*[#   8]+0.001*[#  11]+0.001*[#  12]+0.001*[#  14]+
    |psi|^2 = 0.021
==== e(  23) =    24.69302 eV ==== 
     psi = 0.002*[#  15]+0.002*[#   9]+0.001*[#  10]+0.001*[#  13]+
    |psi|^2 = 0.013
==== e(  24) =    24.95095 eV ==== 
     psi = 0.004*[#   9]+
    |psi|^2 = 0.010

 k =  -0.5000000000 -0.7500000000  1.0000000000
==== e(   1) =    -8.10074 eV ==== 
     psi = 0.398*[#   1]+0.398*[#   5]+0.177*[#  15]+0.011*[#  10]+0.011*[#  13]+
    |psi|^2 = 0.999
==== e(   2) =    -8.09009 eV ==== 
     psi = 0.399*[#   1]+0.399*[#   5]+0.173*[#   9]+0.012*[#  16]+0.012*[#  19]+
    |psi|^2 = 0.999
==== e(   3) =     4.43764 eV ==== 
     psi = 0.127*[#   9]+0.099*[#   2]+0.099*[#   3]+0.099*[#   4]+0.099*[#   6]+
          +0.099*[#   7]+0.099*[#   8]+0.095*[#  16]+0.095*[#  19]+0.017*[#  17]+
          +0.017*[#  18]+0.017*[#  20]+0.009*[#   1]+0.009*[#   5]+0.005*[#  11]+
          +0.005*[#  12]+0.005*[#  14]+0.001*[#  10]+0.001*[#  13]+
    |psi|^2 = 0.999
==== e(   4) =     4.66845 eV ==== 
     psi = 0.146*[#  15]+0.109*[#   2]+0.109*[#   3]+0.109*[#   4]+0.109*[#   6]+
          +0.109*[#   7]+0.109*[#   8]+0.031*[#  10]+0.031*[#  13]+0.022*[#  17]+
          +0.022*[#  18]+0.022*[#  20]+0.019*[#   1]+0.019*[#   5]+0.006*[#  11]+
          +0.006*[#  12]+0.006*[#  14]+0.004*[#  16]+0.004*[#  19]+
    |psi|^2 = 0.997
==== e(   5) =     5.81694 eV ==== 
     psi = 0.210*[#  16]+0.210*[#  19]+0.085*[#   2]+0.085*[#   3]+0.085*[#   4]+
          +0.085*[#   6]+0.085*[#   7]+0.085*[#   8]+0.018*[#  17]+0.018*[#  18]+
          +0.018*[#  20]+0.005*[#  10]+0.005*[#  13]+0.001*[#   1]+0.001*[#   5]+
    |psi|^2 = 0.998
==== e(   6) =     6.18740 eV ==== 
     psi = 0.114*[#  17]+0.114*[#  18]+0.114*[#  20]+0.099*[#   2]+0.099*[#   3]+
          +0.099*[#   4]+0.099*[#   6]+0.099*[#   7]+0.099*[#   8]+0.014*[#  11]+
          +0.014*[#  12]+0.014*[#  14]+0.008*[#  16]+0.008*[#  19]+0.003*[#  15]+
    |psi|^2 = 0.994
==== e(   7) =     6.41259 eV ==== 
     psi = 0.109*[#   2]+0.109*[#   3]+0.109*[#   4]+0.109*[#   6]+0.109*[#   7]+
          +0.109*[#   8]+0.063*[#  17]+0.063*[#  18]+0.063*[#  20]+0.032*[#  10]+
          +0.032*[#  13]+0.029*[#  16]+0.029*[#  19]+0.008*[#  11]+0.008*[#  12]+
          +0.008*[#  14]+0.002*[#   1]+0.002*[#   5]+
    |psi|^2 = 0.994
==== e(   8) =     6.60743 eV ==== 
     psi = 0.132*[#   2]+0.132*[#   3]+0.132*[#   4]+0.132*[#   6]+0.132*[#   7]+
          +0.132*[#   8]+0.029*[#  11]+0.029*[#  12]+0.029*[#  14]+0.026*[#  10]+
          +0.026*[#  13]+0.015*[#  16]+0.015*[#  19]+0.006*[#  17]+0.006*[#  18]+
          +0.006*[#  20]+0.004*[#   9]+0.002*[#   1]+0.002*[#   5]+
    |psi|^2 = 0.989
==== e(   9) =     8.18947 eV ==== 
     psi = 0.287*[#  17]+0.287*[#  18]+0.287*[#  20]+0.014*[#   2]+0.014*[#   3]+
          +0.014*[#   4]+0.014*[#   6]+0.014*[#   7]+0.014*[#   8]+0.011*[#  15]+
          +0.009*[#  16]+0.009*[#  19]+0.006*[#  11]+0.006*[#  12]+0.006*[#  14]+
          +0.001*[#  10]+0.001*[#  13]+
    |psi|^2 = 0.997
==== e(  10) =     8.46413 eV ==== 
     psi = 0.239*[#  17]+0.239*[#  18]+0.239*[#  20]+0.037*[#   2]+0.037*[#   3]+
          +0.037*[#   4]+0.037*[#   6]+0.037*[#   7]+0.037*[#   8]+0.011*[#  11]+
          +0.011*[#  12]+0.011*[#  14]+0.009*[#   9]+0.004*[#  10]+0.004*[#  13]+
          +0.001*[#  16]+0.001*[#  19]+
    |psi|^2 = 0.994
==== e(  11) =     8.89548 eV ==== 
     psi = 0.216*[#  17]+0.216*[#  18]+0.216*[#  20]+0.054*[#   2]+0.054*[#   3]+
          +0.054*[#   4]+0.054*[#   6]+0.054*[#   7]+0.054*[#   8]+0.003*[#  16]+
          +0.003*[#  19]+0.002*[#  11]+0.002*[#  12]+0.002*[#  14]+
    |psi|^2 = 0.989
==== e(  12) =     9.15567 eV ==== 
     psi = 0.338*[#  16]+0.338*[#  19]+0.032*[#  10]+0.032*[#  13]+0.030*[#   9]+
          +0.027*[#   1]+0.027*[#   5]+0.027*[#   2]+0.027*[#   3]+0.027*[#   4]+
          +0.027*[#   6]+0.027*[#   7]+0.027*[#   8]+0.002*[#  11]+0.002*[#  12]+
          +0.002*[#  14]+
    |psi|^2 = 0.991
==== e(  13) =     9.78853 eV ==== 
     psi = 0.253*[#  16]+0.253*[#  19]+0.063*[#   2]+0.063*[#   3]+0.063*[#   4]+
          +0.063*[#   6]+0.063*[#   7]+0.063*[#   8]+0.037*[#  10]+0.037*[#  13]+
          +0.008*[#  11]+0.008*[#  12]+0.008*[#  14]+0.002*[#  17]+0.002*[#  18]+
          +0.002*[#  20]+
    |psi|^2 = 0.989
==== e(  14) =    11.53852 eV ==== 
     psi = 0.294*[#  11]+0.294*[#  12]+0.294*[#  14]+0.013*[#   2]+0.013*[#   3]+
          +0.013*[#   4]+0.013*[#   6]+0.013*[#   7]+0.013*[#   8]+0.008*[#  15]+
          +0.007*[#  17]+0.007*[#  18]+0.007*[#  20]+0.002*[#  16]+0.002*[#  19]+
    |psi|^2 = 0.996
==== e(  15) =    11.63359 eV ==== 
     psi = 0.307*[#  11]+0.307*[#  12]+0.307*[#  14]+0.011*[#   9]+0.006*[#  17]+
          +0.006*[#  18]+0.006*[#  20]+0.005*[#  10]+0.005*[#  13]+0.005*[#   2]+
          +0.005*[#   3]+0.005*[#   4]+0.005*[#   6]+0.005*[#   7]+0.005*[#   8]+
          +0.001*[#   1]+0.001*[#   5]+
    |psi|^2 = 0.996
==== e(  16) =    12.08800 eV ==== 
     psi = 0.300*[#  11]+0.300*[#  12]+0.300*[#  14]+0.016*[#   2]+0.016*[#   3]+
          +0.016*[#   4]+0.016*[#   6]+0.016*[#   7]+0.016*[#   8]+
    |psi|^2 = 0.998
==== e(  17) =    12.74456 eV ==== 
     psi = 0.367*[#  10]+0.367*[#  13]+0.093*[#  15]+0.043*[#   1]+0.043*[#   5]+
          +0.011*[#   2]+0.011*[#   3]+0.011*[#   4]+0.011*[#   6]+0.011*[#   7]+
          +0.011*[#   8]+0.006*[#  16]+0.006*[#  19]+
    |psi|^2 = 0.994
==== e(  18) =    13.30289 eV ==== 
     psi = 0.392*[#  10]+0.392*[#  13]+0.029*[#   2]+0.029*[#   3]+0.029*[#   4]+
          +0.029*[#   6]+0.029*[#   7]+0.029*[#   8]+0.009*[#   9]+0.005*[#   1]+
          +0.005*[#   5]+0.003*[#  16]+0.003*[#  19]+0.003*[#  11]+0.003*[#  12]+
          +0.003*[#  14]+
    |psi|^2 = 0.990
==== e(  19) =    16.16989 eV ==== 
     psi = 0.546*[#  15]+0.045*[#   2]+0.045*[#   3]+0.045*[#   4]+0.045*[#   6]+
          +0.045*[#   7]+0.045*[#   8]+0.044*[#  10]+0.044*[#  13]+0.036*[#   1]+
          +0.036*[#   5]+
    |psi|^2 = 0.975
==== e(  20) =    16.22692 eV ==== 
     psi = 0.606*[#   9]+0.051*[#   1]+0.051*[#   5]+0.039*[#   2]+0.039*[#   3]+
          +0.039*[#   4]+0.039*[#   6]+0.039*[#   7]+0.039*[#   8]+0.005*[#  10]+
          +0.005*[#  13]+0.004*[#  16]+0.004*[#  19]+
    |psi|^2 = 0.958
==== e(  21) =    22.37379 eV ==== 
     psi = 0.001*[#   2]+0.001*[#   3]+0.001*[#   4]+0.001*[#   6]+0.001*[#   7]+
          +0.001*[#   8]+0.001*[#  11]+0.001*[#  12]+0.001*[#  14]+
    |psi|^2 = 0.013
==== e(  22) =    22.60577 eV ==== 
     psi = 0.001*[#  11]+0.001*[#  12]+0.001*[#  14]+0.001*[#   2]+0.001*[#   3]+
          +0.001*[#   4]+0.001*[#   6]+0.001*[#   7]+0.001*[#   8]+
    |psi|^2 = 0.012
==== e(  23) =    23.00764 eV ==== 
     psi = 0.008*[#  15]+0.002*[#   2]+0.002*[#   3]+0.002*[#   4]+0.002*[#   6]+
          +0.002*[#   7]+0.002*[#   8]+0.001*[#  10]+0.001*[#  13]+
    |psi|^2 = 0.021
==== e(  24) =    23.26424 eV ==== 
     psi = 0.022*[#   9]+0.002*[#   2]+0.002*[#   3]+0.002*[#   4]+0.002*[#   6]+
          +0.002*[#   7]+0.002*[#   8]+0.001*[#   1]+0.001*[#   5]+
    |psi|^2 = 0.037

 k =  -0.2500000000 -0.2500000000 -0.2500000000
==== e(   1) =    -8.33744 eV ==== 
     psi = 0.366*[#   1]+0.366*[#   5]+0.264*[#  15]+
    |psi|^2 = 0.999
==== e(   2) =    -8.31298 eV ==== 
     psi = 0.369*[#   1]+0.369*[#   5]+0.260*[#   9]+
    |psi|^2 = 0.999
==== e(   3) =     4.83875 eV ==== 
     psi = 0.096*[#   2]+0.096*[#   3]+0.096*[#   4]+0.096*[#   6]+0.096*[#   7]+
          +0.096*[#   8]+0.094*[#  15]+0.091*[#  17]+0.091*[#  18]+0.091*[#  20]+
          +0.027*[#   1]+0.027*[#   5]+
    |psi|^2 = 0.996
==== e(   4) =     5.26350 eV ==== 
     psi = 0.119*[#   2]+0.119*[#   3]+0.119*[#   4]+0.119*[#   6]+0.119*[#   7]+
          +0.119*[#   8]+0.117*[#   9]+0.035*[#  11]+0.035*[#  12]+0.035*[#  14]+
          +0.029*[#   1]+0.029*[#   5]+
    |psi|^2 = 0.993
==== e(   5) =     5.86243 eV ==== 
     psi = 0.234*[#  16]+0.234*[#  19]+0.076*[#   2]+0.076*[#   3]+0.076*[#   4]+
          +0.076*[#   6]+0.076*[#   7]+0.076*[#   8]+0.024*[#  17]+0.024*[#  18]+
          +0.024*[#  20]+
    |psi|^2 = 0.999
==== e(   6) =     5.86243 eV ==== 
     psi = 0.234*[#  16]+0.234*[#  19]+0.076*[#   2]+0.076*[#   3]+0.076*[#   4]+
          +0.076*[#   6]+0.076*[#   7]+0.076*[#   8]+0.024*[#  17]+0.024*[#  18]+
          +0.024*[#  20]+
    |psi|^2 = 0.999
==== e(   7) =     6.94763 eV ==== 
     psi = 0.132*[#   2]+0.132*[#   3]+0.132*[#   4]+0.132*[#   6]+0.132*[#   7]+
          +0.132*[#   8]+0.087*[#  10]+0.087*[#  13]+0.010*[#  11]+0.010*[#  12]+
          +0.010*[#  14]+
    |psi|^2 = 0.996
==== e(   8) =     6.94763 eV ==== 
     psi = 0.132*[#   2]+0.132*[#   3]+0.132*[#   4]+0.132*[#   6]+0.132*[#   7]+
          +0.132*[#   8]+0.087*[#  10]+0.087*[#  13]+0.010*[#  11]+0.010*[#  12]+
          +0.010*[#  14]+
    |psi|^2 = 0.996
==== e(   9) =     8.19992 eV ==== 
     psi = 0.299*[#  17]+0.299*[#  18]+0.299*[#  20]+0.049*[#  16]+0.049*[#  19]+
    |psi|^2 = 0.999
==== e(  10) =     8.19992 eV ==== 
     psi = 0.299*[#  17]+0.299*[#  18]+0.299*[#  20]+0.049*[#  16]+0.049*[#  19]+
    |psi|^2 = 0.999
==== e(  11) =     8.32395 eV ==== 
     psi = 0.240*[#  17]+0.240*[#  18]+0.240*[#  20]+0.067*[#  15]+0.031*[#   2]+
          +0.031*[#   3]+0.031*[#   4]+0.031*[#   6]+0.031*[#   7]+0.031*[#   8]+
          +0.012*[#   1]+0.012*[#   5]+
    |psi|^2 = 0.993
==== e(  12) =    10.16497 eV ==== 
     psi = 0.215*[#  16]+0.215*[#  19]+0.089*[#   2]+0.089*[#   3]+0.089*[#   4]+
          +0.089*[#   6]+0.089*[#   7]+0.089*[#   8]+0.009*[#  17]+0.009*[#  18]+
          +0.009*[#  20]+
    |psi|^2 = 0.990
==== e(  13) =    10.16497 eV ==== 
     psi = 0.215*[#  16]+0.215*[#  19]+0.089*[#   2]+0.089*[#   3]+0.089*[#   4]+
          +0.089*[#   6]+0.089*[#   7]+0.089*[#   8]+0.009*[#  17]+0.009*[#  18]+
          +0.009*[#  20]+
    |psi|^2 = 0.990
==== e(  14) =    11.44296 eV ==== 
     psi = 0.316*[#  11]+0.316*[#  12]+0.316*[#  14]+0.021*[#  10]+0.021*[#  13]+
          +0.002*[#   2]+0.002*[#   3]+0.002*[#   4]+0.002*[#   6]+0.002*[#   7]+
          +0.002*[#   8]+
    |psi|^2 = 0.998
==== e(  15) =    11.44296 eV ==== 
     psi = 0.316*[#  11]+0.316*[#  12]+0.316*[#  14]+0.021*[#  10]+0.021*[#  13]+
          +0.002*[#   2]+0.002*[#   3]+0.002*[#   4]+0.002*[#   6]+0.002*[#   7]+
          +0.002*[#   8]+
    |psi|^2 = 0.998
==== e(  16) =    11.61940 eV ==== 
     psi = 0.290*[#  11]+0.290*[#  12]+0.290*[#  14]+0.052*[#   9]+0.009*[#   2]+
          +0.009*[#   3]+0.009*[#   4]+0.009*[#   6]+0.009*[#   7]+0.009*[#   8]+
          +0.008*[#   1]+0.008*[#   5]+
    |psi|^2 = 0.992
==== e(  17) =    13.23368 eV ==== 
     psi = 0.391*[#  10]+0.391*[#  13]+0.032*[#   2]+0.032*[#   3]+0.032*[#   4]+
          +0.032*[#   6]+0.032*[#   7]+0.032*[#   8]+0.007*[#  11]+0.007*[#  12]+
          +0.007*[#  14]+
    |psi|^2 = 0.993
==== e(  18) =    13.23368 eV ==== 
     psi = 0.391*[#  10]+0.391*[#  13]+0.032*[#   2]+0.032*[#   3]+0.032*[#   4]+
          +0.032*[#   6]+0.032*[#   7]+0.032*[#   8]+0.007*[#  11]+0.007*[#  12]+
          +0.007*[#  14]+
    |psi|^2 = 0.993
==== e(  19) =    14.39084 eV ==== 
     psi = 0.560*[#  15]+0.092*[#   1]+0.092*[#   5]+0.037*[#   2]+0.037*[#   3]+
          +0.037*[#   4]+0.037*[#   6]+0.037*[#   7]+0.037*[#   8]+0.001*[#  17]+
          +0.001*[#  18]+0.001*[#  20]+
    |psi|^2 = 0.968
==== e(  20) =    14.71376 eV ==== 
     psi = 0.545*[#   9]+0.091*[#   1]+0.091*[#   5]+0.035*[#   2]+0.035*[#   3]+
          +0.035*[#   4]+0.035*[#   6]+0.035*[#   7]+0.035*[#   8]+0.006*[#  11]+
          +0.006*[#  12]+0.006*[#  14]+
    |psi|^2 = 0.956
==== e(  21) =    22.21310 eV ==== 
     psi = 0.012*[#  15]+0.003*[#   2]+0.003*[#   3]+0.003*[#   4]+0.003*[#   6]+
          +0.003*[#   7]+0.003*[#   8]+0.001*[#   1]+0.001*[#   5]+
    |psi|^2 = 0.032
==== e(  22) =    22.70897 eV ==== 
     psi = 0.022*[#   9]+0.003*[#   2]+0.003*[#   3]+0.003*[#   4]+0.003*[#   6]+
          +0.003*[#   7]+0.003*[#   8]+0.002*[#   1]+0.002*[#   5]+0.001*[#  11]+
          +0.001*[#  12]+0.001*[#  14]+
    |psi|^2 = 0.046
==== e(  23) =    26.48962 eV ==== 
     psi = 0.001*[#  10]+0.001*[#  13]+
    |psi|^2 = 0.005
==== e(  24) =    26.48962 eV ==== 
     psi = 0.001*[#  10]+0.001*[#  13]+
    |psi|^2 = 0.005

Lowdin Charges: 

     Atom #   1: total charge =   6.9807, s =  1.8296, p =  5.1511, d =  0.0000, 
                 spin up      =   3.4904, s =  0.9148, p =  2.5755, d =  0.0000, 
                 spin down    =   3.4904, s =  0.9148, p =  2.5755, d =  0.0000, 
                 polarization =   0.0000, s =  0.0000, p =  0.0000, d =  0.0000, 
     Atom #   2: total charge =   6.9807, s =  1.8296, p =  5.1511, d =  0.0000, 
                 spin up      =   3.4904, s =  0.9148, p =  2.5755, d =  0.0000, 
                 spin down    =   3.4904, s =  0.9148, p =  2.5755, d =  0.0000, 
                 polarization =   0.0000, s =  0.0000, p =  0.0000, d =  0.0000, 
     Atom #   3: total charge =   6.9130, s =  0.4536, p =  0.0000, d =  6.4593, 
                 spin up      =   5.1727, s =  0.2284, p =  0.0000, d =  4.9443, 
                 spin down    =   1.7403, s =  0.2252, p =  0.0000, d =  1.5150, 
                 polarization =   3.4324, s =  0.0032, p =  0.0000, d =  3.4293, 
     Atom #   4: total charge =   6.9111, s =  0.4536, p =  0.0000, d =  6.4575, 
                 spin up      =   1.7384, s =  0.2252, p =  0.0000, d =  1.5132, 
                 spin down    =   5.1727, s =  0.2284, p =  0.0000, d =  4.9443, 
                 polarization =  -3.4343, s = -0.0032, p =  0.0000, d = -3.4311, 
     Spilling Parameter:   0.0077
