
     Program PWSCF v.5.0        starts on 15Jun2012 at 16:19:21 

     This program is part of the open-source Quantum ESPRESSO suite
     for quantum simulation of materials; please cite
         "P. Giannozzi et al., J. Phys.:Condens. Matter 21 395502 (2009);
          URL http://www.quantum-espresso.org", 
     in publications or presentations arising from this work. More details at
     http://www.quantum-espresso.org/quote.php

     Parallel version (MPI), running on     4 processors
     K-points division:     npool     =    4

     Current dimensions of program PWSCF are:
     Max number of different atomic species (ntypx) = 10
     Max number of k-points (npk) =  40000
     Max angular momentum in pseudopotentials (lmaxx) =  3
     Waiting for input...
     Reading input from standard input
               file O.pbe-rrkjus.UPF: wavefunction(s)  2S renormalized
               file Fe.pbe-nd-rrkjus.UPF: wavefunction(s)  4S renormalized
               file Fe.pbe-nd-rrkjus.UPF: wavefunction(s)  4S renormalized

     Subspace diagonalization in iterative solution of the eigenvalue problem:
     a serial algorithm will be used

 
     G-vector sticks info
     --------------------
     sticks:   dense  smooth     PW     G-vecs:    dense   smooth      PW
     Sum        1061     539    171                17255     6111    1141
 


     bravais-lattice index     =            0
     lattice parameter (alat)  =       8.1900  a.u.
     unit-cell volume          =     274.6766 (a.u.)^3
     number of atoms/cell      =            4
     number of atomic types    =            3
     number of electrons       =        28.00
     number of Kohn-Sham states=           18
     kinetic-energy cutoff     =      30.0000  Ry
     charge density cutoff     =     240.0000  Ry
     convergence threshold     =      1.0E-06
     mixing beta               =       0.3000
     number of iterations used =            8  plain     mixing
     Exchange-correlation      =  SLA  PW   PBE  PBE ( 1 4 3 4 0)
     EXX-fraction              =        0.00

     celldm(1)=   8.190000  celldm(2)=   0.000000  celldm(3)=   0.000000
     celldm(4)=   0.000000  celldm(5)=   0.000000  celldm(6)=   0.000000

     crystal axes: (cart. coord. in units of alat)
               a(1) = (   0.500000   0.500000   1.000000 )  
               a(2) = (   0.500000   1.000000   0.500000 )  
               a(3) = (   1.000000   0.500000   0.500000 )  

     reciprocal axes: (cart. coord. in units 2 pi/alat)
               b(1) = ( -0.500000 -0.500000  1.500000 )  
               b(2) = ( -0.500000  1.500000 -0.500000 )  
               b(3) = (  1.500000 -0.500000 -0.500000 )  


     PseudoPot. # 1 for O  read from file:
     ../pseudo/O.pbe-rrkjus.UPF
     MD5 check sum: 390ba29e75625707450f3bd3f0eb6be9
     Pseudo is Ultrasoft, Zval =  6.0
     Generated by new atomic code, or converted to UPF format
     Using radial grid of 1269 points,  4 beta functions with: 
                l(1) =   0
                l(2) =   0
                l(3) =   1
                l(4) =   1
     Q(r) pseudized with 0 coefficients 


     PseudoPot. # 2 for Fe read from file:
     ../pseudo/Fe.pbe-nd-rrkjus.UPF
     MD5 check sum: 23c640529ef232ac9996b4ec1b0ce2fd
     Pseudo is Ultrasoft + core correction, Zval =  8.0
     Generated by new atomic code, or converted to UPF format
     Using radial grid of  957 points,  6 beta functions with: 
                l(1) =   0
                l(2) =   0
                l(3) =   1
                l(4) =   1
                l(5) =   2
                l(6) =   2
     Q(r) pseudized with 0 coefficients 


     PseudoPot. # 3 for Fe read from file:
     ../pseudo/Fe.pbe-nd-rrkjus.UPF
     MD5 check sum: 23c640529ef232ac9996b4ec1b0ce2fd
     Pseudo is Ultrasoft + core correction, Zval =  8.0
     Generated by new atomic code, or converted to UPF format
     Using radial grid of  957 points,  6 beta functions with: 
                l(1) =   0
                l(2) =   0
                l(3) =   1
                l(4) =   1
                l(5) =   2
                l(6) =   2
     Q(r) pseudized with 0 coefficients 


     atomic species   valence    mass     pseudopotential
        O              6.00     1.00000     O ( 1.00)
        Fe1            8.00     1.00000     Fe( 1.00)
        Fe2            8.00     1.00000     Fe( 1.00)

     Starting magnetic structure 
     atomic species   magnetization
        O            0.000
        Fe1          0.500
        Fe2         -0.500
 -----
     simplified LDA+U calculation, Hubbard_lmax = 2
     atomic species  L   Hubbard U  Hubbard alpha
        O            1    0.000000    0.000000
        Fe1          2    0.000000    0.000000
        Fe2          2    0.000000    0.000000
 -----

     12 Sym. Ops., with inversion, found



   Cartesian axes

     site n.     atom                  positions (alat units)
         1           O   tau(   1) = (   0.5000000   0.5000000   0.5000000  )
         2           O   tau(   2) = (   1.5000000   1.5000000   1.5000000  )
         3           Fe1 tau(   3) = (   0.0000000   0.0000000   0.0000000  )
         4           Fe2 tau(   4) = (   1.0000000   1.0000000   1.0000000  )

     number of k points=    26  Methfessel-Paxton smearing, width (Ry)=  0.0200
                       cart. coord. in units 2pi/alat
        k(    1) = (   0.0000000   0.0000000   0.0000000), wk =   0.0156250
        k(    2) = (   0.3750000  -0.1250000  -0.1250000), wk =   0.0937500
        k(    3) = (  -0.7500000   0.2500000   0.2500000), wk =   0.0468750
        k(    4) = (   0.2500000   0.2500000  -0.2500000), wk =   0.0937500
        k(    5) = (  -0.8750000   0.6250000   0.1250000), wk =   0.1875000
        k(    6) = (  -0.5000000   0.5000000   0.0000000), wk =   0.0937500
        k(    7) = (  -0.5000000  -0.5000000   0.5000000), wk =   0.0468750
        k(    8) = (   0.1250000   0.1250000   0.1250000), wk =   0.0312500
        k(    9) = (  -1.0000000   0.5000000   0.5000000), wk =   0.0937500
        k(   10) = (  -0.6250000   0.3750000   0.3750000), wk =   0.0937500
        k(   11) = (  -0.6250000  -0.6250000   0.8750000), wk =   0.0937500
        k(   12) = (  -0.2500000  -0.7500000   0.7500000), wk =   0.0937500
        k(   13) = (  -0.2500000  -0.2500000  -0.2500000), wk =   0.0156250
        k(   14) = (   0.0000000   0.0000000   0.0000000), wk =   0.0156250
        k(   15) = (   0.3750000  -0.1250000  -0.1250000), wk =   0.0937500
        k(   16) = (  -0.7500000   0.2500000   0.2500000), wk =   0.0468750
        k(   17) = (   0.2500000   0.2500000  -0.2500000), wk =   0.0937500
        k(   18) = (  -0.8750000   0.6250000   0.1250000), wk =   0.1875000
        k(   19) = (  -0.5000000   0.5000000   0.0000000), wk =   0.0937500
        k(   20) = (  -0.5000000  -0.5000000   0.5000000), wk =   0.0468750
        k(   21) = (   0.1250000   0.1250000   0.1250000), wk =   0.0312500
        k(   22) = (  -1.0000000   0.5000000   0.5000000), wk =   0.0937500
        k(   23) = (  -0.6250000   0.3750000   0.3750000), wk =   0.0937500
        k(   24) = (  -0.6250000  -0.6250000   0.8750000), wk =   0.0937500
        k(   25) = (  -0.2500000  -0.7500000   0.7500000), wk =   0.0937500
        k(   26) = (  -0.2500000  -0.2500000  -0.2500000), wk =   0.0156250

     Dense  grid:    17255 G-vectors     FFT dimensions: (  50,  50,  50)

     Smooth grid:     6111 G-vectors     FFT dimensions: (  36,  36,  36)

     Largest allocated arrays     est. size (Mb)     dimensions
        Kohn-Sham Wavefunctions         0.21 Mb     (    780,   18)
        Atomic wavefunctions            0.24 Mb     (    780,   20)
        NL pseudopotentials             0.62 Mb     (    780,   52)
        Each V/rho on FFT grid          3.81 Mb     ( 125000,   2)
        Each G-vector array             0.13 Mb     (  17255)
        G-vector shells                 0.00 Mb     (    342)
     Largest temporary arrays     est. size (Mb)     dimensions
        Auxiliary wavefunctions         0.86 Mb     (    780,   72)
        Each subspace H/S matrix        0.08 Mb     (  72,  72)
        Each <psi_i|beta_j> matrix      0.01 Mb     (     52,   18)
        Arrays for rho mixing          15.26 Mb     ( 125000,   8)

     Check: negative/imaginary core charge=   -0.000003    0.000000

     Initial potential from superposition of free atoms

     starting charge   27.99873, renormalised to   28.00000
     Number of +U iterations with fixed ns =  0
     Starting occupations:
 --- enter write_ns ---
 LDA+U parameters:
U( 1)     =  0.00000000
alpha( 1) =  0.00000000
U( 2)     =  0.00000000
alpha( 2) =  0.00000000
U( 3)     =  0.00000000
alpha( 3) =  0.00000000
atom    1   Tr[ns(na)] (up, down, total) =   2.00000  2.00000  4.00000
   spin  1
    eigenvalues: 
  0.667  0.667  0.667
    eigenvectors:
  1.000  0.000  0.000
  0.000  1.000  0.000
  0.000  0.000  1.000
    occupations:
  0.667  0.000  0.000
  0.000  0.667  0.000
  0.000  0.000  0.667
   spin  2
    eigenvalues: 
  0.667  0.667  0.667
    eigenvectors:
  1.000  0.000  0.000
  0.000  1.000  0.000
  0.000  0.000  1.000
    occupations:
  0.667  0.000  0.000
  0.000  0.667  0.000
  0.000  0.000  0.667
atomic mag. moment =     0.000000
atom    2   Tr[ns(na)] (up, down, total) =   2.00000  2.00000  4.00000
   spin  1
    eigenvalues: 
  0.667  0.667  0.667
    eigenvectors:
  1.000  0.000  0.000
  0.000  1.000  0.000
  0.000  0.000  1.000
    occupations:
  0.667  0.000  0.000
  0.000  0.667  0.000
  0.000  0.000  0.667
   spin  2
    eigenvalues: 
  0.667  0.667  0.667
    eigenvectors:
  1.000  0.000  0.000
  0.000  1.000  0.000
  0.000  0.000  1.000
    occupations:
  0.667  0.000  0.000
  0.000  0.667  0.000
  0.000  0.000  0.667
atomic mag. moment =     0.000000
atom    3   Tr[ns(na)] (up, down, total) =   5.00000  1.00000  6.00000
   spin  1
    eigenvalues: 
  1.000  1.000  1.000  1.000  1.000
    eigenvectors:
  1.000  0.000  0.000  0.000  0.000
  0.000  1.000  0.000  0.000  0.000
  0.000  0.000  1.000  0.000  0.000
  0.000  0.000  0.000  1.000  0.000
  0.000  0.000  0.000  0.000  1.000
    occupations:
  1.000  0.000  0.000  0.000  0.000
  0.000  1.000  0.000  0.000  0.000
  0.000  0.000  1.000  0.000  0.000
  0.000  0.000  0.000  1.000  0.000
  0.000  0.000  0.000  0.000  1.000
   spin  2
    eigenvalues: 
  0.200  0.200  0.200  0.200  0.200
    eigenvectors:
  1.000  0.000  0.000  0.000  0.000
  0.000  1.000  0.000  0.000  0.000
  0.000  0.000  1.000  0.000  0.000
  0.000  0.000  0.000  1.000  0.000
  0.000  0.000  0.000  0.000  1.000
    occupations:
  0.200  0.000  0.000  0.000  0.000
  0.000  0.200  0.000  0.000  0.000
  0.000  0.000  0.200  0.000  0.000
  0.000  0.000  0.000  0.200  0.000
  0.000  0.000  0.000  0.000  0.200
atomic mag. moment =     4.000000
atom    4   Tr[ns(na)] (up, down, total) =   1.00000  5.00000  6.00000
   spin  1
    eigenvalues: 
  0.200  0.200  0.200  0.200  0.200
    eigenvectors:
  1.000  0.000  0.000  0.000  0.000
  0.000  1.000  0.000  0.000  0.000
  0.000  0.000  1.000  0.000  0.000
  0.000  0.000  0.000  1.000  0.000
  0.000  0.000  0.000  0.000  1.000
    occupations:
  0.200  0.000  0.000  0.000  0.000
  0.000  0.200  0.000  0.000  0.000
  0.000  0.000  0.200  0.000  0.000
  0.000  0.000  0.000  0.200  0.000
  0.000  0.000  0.000  0.000  0.200
   spin  2
    eigenvalues: 
  1.000  1.000  1.000  1.000  1.000
    eigenvectors:
  1.000  0.000  0.000  0.000  0.000
  0.000  1.000  0.000  0.000  0.000
  0.000  0.000  1.000  0.000  0.000
  0.000  0.000  0.000  1.000  0.000
  0.000  0.000  0.000  0.000  1.000
    occupations:
  1.000  0.000  0.000  0.000  0.000
  0.000  1.000  0.000  0.000  0.000
  0.000  0.000  1.000  0.000  0.000
  0.000  0.000  0.000  1.000  0.000
  0.000  0.000  0.000  0.000  1.000
atomic mag. moment =    -4.000000
N of occupied +U levels =  20.0000000
 --- exit write_ns ---
 Atomic wfc used for LDA+U Projector are NOT orthogonalized
     Starting wfc are   20 randomized atomic wfcs

     total cpu time spent up to now is        2.9 secs

     per-process dynamical memory:    26.8 Mb

     Self-consistent Calculation

     iteration #  1     ecut=    30.00 Ry     beta=0.30
     Davidson diagonalization with overlap
     ethr =  1.00E-02,  avg # of iterations =  1.9
 --- enter write_ns ---
 LDA+U parameters:
U( 1)     =  0.00000000
alpha( 1) =  0.00000000
U( 2)     =  0.00000000
alpha( 2) =  0.00000000
U( 3)     =  0.00000000
alpha( 3) =  0.00000000
atom    1   Tr[ns(na)] (up, down, total) =   2.94609  2.94612  5.89222
   spin  1
    eigenvalues: 
  0.982  0.982  0.983
    eigenvectors:
  0.441  0.226  0.333
  0.553  0.114  0.333
  0.006  0.660  0.333
    occupations:
  0.982  0.000  0.000
  0.000  0.982  0.000
  0.000  0.000  0.982
   spin  2
    eigenvalues: 
  0.982  0.982  0.983
    eigenvectors:
  0.376  0.291  0.333
  0.599  0.068  0.333
  0.026  0.641  0.333
    occupations:
  0.982  0.000  0.000
  0.000  0.982  0.000
  0.000  0.000  0.982
atomic mag. moment =    -0.000031
atom    2   Tr[ns(na)] (up, down, total) =   2.94609  2.94612  5.89222
   spin  1
    eigenvalues: 
  0.982  0.982  0.983
    eigenvectors:
  0.403  0.264  0.333
  0.581  0.086  0.333
  0.016  0.650  0.333
    occupations:
  0.982  0.000  0.000
  0.000  0.982  0.000
  0.000  0.000  0.982
   spin  2
    eigenvalues: 
  0.982  0.982  0.983
    eigenvectors:
  0.382  0.284  0.333
  0.594  0.072  0.333
  0.023  0.643  0.333
    occupations:
  0.982  0.000  0.000
  0.000  0.982  0.000
  0.000  0.000  0.982
atomic mag. moment =    -0.000031
atom    3   Tr[ns(na)] (up, down, total) =   4.96219  1.36901  6.33120
   spin  1
    eigenvalues: 
  0.991  0.991  0.992  0.994  0.994
    eigenvectors:
  0.197  0.220  0.000  0.371  0.212
  0.368  0.021  0.333  0.004  0.274
  0.032  0.357  0.333  0.236  0.042
  0.220  0.197  0.000  0.212  0.371
  0.184  0.205  0.333  0.177  0.101
    occupations:
  0.993 -0.001 -0.001  0.000 -0.001
 -0.001  0.992  0.000 -0.001  0.000
 -0.001  0.000  0.992  0.001  0.000
  0.000 -0.001  0.001  0.993  0.000
 -0.001  0.000  0.000  0.000  0.992
   spin  2
    eigenvalues: 
  0.191  0.191  0.282  0.352  0.352
    eigenvectors:
  0.986  0.002  0.000  0.010  0.001
  0.002  0.006  0.333  0.019  0.640
  0.002  0.006  0.333  0.389  0.270
  0.002  0.986  0.000  0.001  0.010
  0.008  0.000  0.333  0.580  0.078
    occupations:
  0.193 -0.007 -0.007  0.000 -0.014
 -0.007  0.327 -0.023 -0.012  0.023
 -0.007 -0.023  0.327  0.012  0.023
  0.000 -0.012  0.012  0.193  0.000
 -0.014  0.023  0.023  0.000  0.327
atomic mag. moment =     3.593175
atom    4   Tr[ns(na)] (up, down, total) =   1.35980  4.96229  6.32209
   spin  1
    eigenvalues: 
  0.191  0.191  0.277  0.350  0.350
    eigenvectors:
  0.671  0.317  0.000  0.010  0.002
  0.007  0.001  0.333  0.008  0.651
  0.000  0.008  0.333  0.429  0.229
  0.317  0.671  0.000  0.002  0.010
  0.005  0.003  0.333  0.551  0.108
    occupations:
  0.193 -0.007 -0.007  0.000 -0.014
 -0.007  0.324 -0.024 -0.012  0.024
 -0.007 -0.024  0.324  0.012  0.024
  0.000 -0.012  0.012  0.193  0.000
 -0.014  0.024  0.024  0.000  0.324
   spin  2
    eigenvalues: 
  0.991  0.991  0.992  0.994  0.994
    eigenvectors:
  0.204  0.226  0.000  0.331  0.239
  0.359  0.021  0.333  0.009  0.277
  0.031  0.349  0.333  0.254  0.032
  0.226  0.204  0.000  0.239  0.331
  0.180  0.200  0.333  0.166  0.120
    occupations:
  0.993 -0.001 -0.001  0.000 -0.001
 -0.001  0.992  0.000 -0.001  0.000
 -0.001  0.000  0.992  0.001  0.000
  0.000 -0.001  0.001  0.993  0.000
 -0.001  0.000  0.000  0.000  0.992
atomic mag. moment =    -3.602493
N of occupied +U levels =  24.4377351
 --- exit write_ns ---

     total cpu time spent up to now is        4.9 secs

     total energy              =    -174.85312683 Ry
     Harris-Foulkes estimate   =    -175.78106312 Ry
     estimated scf accuracy    <       2.06497102 Ry

     total magnetization       =    -0.01 Bohr mag/cell
     absolute magnetization    =     7.95 Bohr mag/cell

     iteration #  2     ecut=    30.00 Ry     beta=0.30
     Davidson diagonalization with overlap
     ethr =  7.37E-03,  avg # of iterations =  2.8

     total cpu time spent up to now is        7.0 secs

     total energy              =    -175.34925673 Ry
     Harris-Foulkes estimate   =    -175.39218352 Ry
     estimated scf accuracy    <       0.16187169 Ry

     total magnetization       =     0.10 Bohr mag/cell
     absolute magnetization    =     6.90 Bohr mag/cell

     iteration #  3     ecut=    30.00 Ry     beta=0.30
     Davidson diagonalization with overlap
     ethr =  5.78E-04,  avg # of iterations =  2.1

     total cpu time spent up to now is        9.0 secs

     total energy              =    -175.37010069 Ry
     Harris-Foulkes estimate   =    -175.38082857 Ry
     estimated scf accuracy    <       0.18621007 Ry

     total magnetization       =    -0.72 Bohr mag/cell
     absolute magnetization    =     7.19 Bohr mag/cell

     iteration #  4     ecut=    30.00 Ry     beta=0.30
     Davidson diagonalization with overlap
     ethr =  5.78E-04,  avg # of iterations =  1.0

     total cpu time spent up to now is       10.9 secs

     total energy              =    -175.38586271 Ry
     Harris-Foulkes estimate   =    -175.37853526 Ry
     estimated scf accuracy    <       0.04920682 Ry

     total magnetization       =     0.31 Bohr mag/cell
     absolute magnetization    =     7.19 Bohr mag/cell

     iteration #  5     ecut=    30.00 Ry     beta=0.30
     Davidson diagonalization with overlap
     ethr =  1.76E-04,  avg # of iterations =  1.1

     total cpu time spent up to now is       12.8 secs

     total energy              =    -175.38908234 Ry
     Harris-Foulkes estimate   =    -175.38910638 Ry
     estimated scf accuracy    <       0.00196181 Ry

     total magnetization       =    -0.01 Bohr mag/cell
     absolute magnetization    =     7.19 Bohr mag/cell

     iteration #  6     ecut=    30.00 Ry     beta=0.30
     Davidson diagonalization with overlap
     ethr =  7.01E-06,  avg # of iterations =  2.9

     total cpu time spent up to now is       15.1 secs

     total energy              =    -175.39033861 Ry
     Harris-Foulkes estimate   =    -175.38975429 Ry
     estimated scf accuracy    <       0.00060473 Ry

     total magnetization       =    -0.01 Bohr mag/cell
     absolute magnetization    =     7.23 Bohr mag/cell

     iteration #  7     ecut=    30.00 Ry     beta=0.30
     Davidson diagonalization with overlap
     ethr =  2.16E-06,  avg # of iterations =  2.8

     total cpu time spent up to now is       17.2 secs

     total energy              =    -175.39059669 Ry
     Harris-Foulkes estimate   =    -175.39051421 Ry
     estimated scf accuracy    <       0.00015447 Ry

     total magnetization       =     0.01 Bohr mag/cell
     absolute magnetization    =     7.24 Bohr mag/cell

     iteration #  8     ecut=    30.00 Ry     beta=0.30
     Davidson diagonalization with overlap
     ethr =  5.52E-07,  avg # of iterations =  3.2

     total cpu time spent up to now is       19.4 secs

     total energy              =    -175.39073027 Ry
     Harris-Foulkes estimate   =    -175.39068592 Ry
     estimated scf accuracy    <       0.00007294 Ry

     total magnetization       =     0.00 Bohr mag/cell
     absolute magnetization    =     7.25 Bohr mag/cell

     iteration #  9     ecut=    30.00 Ry     beta=0.30
     Davidson diagonalization with overlap
     ethr =  2.61E-07,  avg # of iterations =  2.6

     total cpu time spent up to now is       21.5 secs

     total energy              =    -175.39067729 Ry
     Harris-Foulkes estimate   =    -175.39077629 Ry
     estimated scf accuracy    <       0.00004483 Ry

     total magnetization       =     0.00 Bohr mag/cell
     absolute magnetization    =     7.25 Bohr mag/cell

     iteration # 10     ecut=    30.00 Ry     beta=0.30
     Davidson diagonalization with overlap
     ethr =  1.60E-07,  avg # of iterations =  3.7

     total cpu time spent up to now is       23.7 secs

     total energy              =    -175.39085952 Ry
     Harris-Foulkes estimate   =    -175.39085344 Ry
     estimated scf accuracy    <       0.00001606 Ry

     total magnetization       =     0.00 Bohr mag/cell
     absolute magnetization    =     7.25 Bohr mag/cell

     iteration # 11     ecut=    30.00 Ry     beta=0.30
     Davidson diagonalization with overlap
     ethr =  5.74E-08,  avg # of iterations =  3.3

     total cpu time spent up to now is       25.8 secs

     total energy              =    -175.39091452 Ry
     Harris-Foulkes estimate   =    -175.39087967 Ry
     estimated scf accuracy    <       0.00000143 Ry

     total magnetization       =     0.00 Bohr mag/cell
     absolute magnetization    =     7.25 Bohr mag/cell

     iteration # 12     ecut=    30.00 Ry     beta=0.30
     Davidson diagonalization with overlap
     ethr =  5.10E-09,  avg # of iterations =  4.0

     total cpu time spent up to now is       28.4 secs

     End of self-consistent calculation
 --- enter write_ns ---
 LDA+U parameters:
U( 1)     =  0.00000000
alpha( 1) =  0.00000000
U( 2)     =  0.00000000
alpha( 2) =  0.00000000
U( 3)     =  0.00000000
alpha( 3) =  0.00000000
atom    1   Tr[ns(na)] (up, down, total) =   2.78796  2.78796  5.57592
   spin  1
    eigenvalues: 
  0.929  0.929  0.930
    eigenvectors:
  0.418  0.249  0.333
  0.570  0.096  0.333
  0.012  0.655  0.333
    occupations:
  0.929  0.000  0.000
  0.000  0.929  0.000
  0.000  0.000  0.929
   spin  2
    eigenvalues: 
  0.929  0.929  0.930
    eigenvectors:
  0.500  0.167  0.333
  0.500  0.167  0.333
  0.000  0.667  0.333
    occupations:
  0.929  0.000  0.000
  0.000  0.929  0.000
  0.000  0.000  0.929
atomic mag. moment =     0.000000
atom    2   Tr[ns(na)] (up, down, total) =   2.78796  2.78796  5.57592
   spin  1
    eigenvalues: 
  0.929  0.929  0.930
    eigenvectors:
  0.418  0.249  0.333
  0.570  0.096  0.333
  0.012  0.655  0.333
    occupations:
  0.929  0.000  0.000
  0.000  0.929  0.000
  0.000  0.000  0.929
   spin  2
    eigenvalues: 
  0.929  0.929  0.930
    eigenvectors:
  0.438  0.228  0.333
  0.555  0.112  0.333
  0.007  0.660  0.333
    occupations:
  0.929  0.000  0.000
  0.000  0.929  0.000
  0.000  0.000  0.929
atomic mag. moment =     0.000000
atom    3   Tr[ns(na)] (up, down, total) =   4.97463  1.85925  6.83388
   spin  1
    eigenvalues: 
  0.991  0.991  0.998  0.998  0.998
    eigenvectors:
  0.481  0.481  0.032  0.007  0.000
  0.024  0.002  0.004  0.637  0.333
  0.002  0.024  0.434  0.207  0.333
  0.481  0.481  0.007  0.032  0.000
  0.013  0.013  0.523  0.118  0.333
    occupations:
  0.991 -0.001 -0.001  0.000 -0.001
 -0.001  0.998  0.000 -0.001  0.000
 -0.001  0.000  0.998  0.001  0.000
  0.000 -0.001  0.001  0.991  0.000
 -0.001  0.000  0.000  0.000  0.998
   spin  2
    eigenvalues: 
  0.281  0.281  0.282  0.508  0.508
    eigenvectors:
  0.003  0.952  0.000  0.037  0.008
  0.024  0.006  0.333  0.005  0.632
  0.021  0.009  0.333  0.426  0.211
  0.952  0.003  0.000  0.008  0.037
  0.000  0.030  0.333  0.524  0.113
    occupations:
  0.291 -0.019 -0.019  0.000 -0.038
 -0.019  0.426 -0.072 -0.033  0.072
 -0.019 -0.072  0.426  0.033  0.072
  0.000 -0.033  0.033  0.291  0.000
 -0.038  0.072  0.072  0.000  0.426
atomic mag. moment =     3.115381
atom    4   Tr[ns(na)] (up, down, total) =   1.85931  4.97463  6.83394
   spin  1
    eigenvalues: 
  0.281  0.281  0.282  0.508  0.508
    eigenvectors:
  0.018  0.937  0.000  0.034  0.011
  0.026  0.004  0.333  0.000  0.636
  0.019  0.011  0.333  0.468  0.168
  0.937  0.018  0.000  0.011  0.034
  0.001  0.029  0.333  0.486  0.150
    occupations:
  0.291 -0.019 -0.019  0.000 -0.038
 -0.019  0.426 -0.072 -0.033  0.072
 -0.019 -0.072  0.426  0.033  0.072
  0.000 -0.033  0.033  0.291  0.000
 -0.038  0.072  0.072  0.000  0.426
   spin  2
    eigenvalues: 
  0.991  0.991  0.998  0.998  0.998
    eigenvectors:
  0.579  0.382  0.036  0.003  0.000
  0.023  0.003  0.033  0.608  0.333
  0.001  0.025  0.342  0.299  0.333
  0.382  0.579  0.003  0.036  0.000
  0.016  0.010  0.586  0.054  0.333
    occupations:
  0.991 -0.001 -0.001  0.000 -0.001
 -0.001  0.998  0.000 -0.001  0.000
 -0.001  0.000  0.998  0.001  0.000
  0.000 -0.001  0.001  0.991  0.000
 -0.001  0.000  0.000  0.000  0.998
atomic mag. moment =    -3.115322
N of occupied +U levels =  24.8196591
 --- exit write_ns ---

 ------ SPIN UP ------------


          k = 0.0000 0.0000 0.0000 (   731 PWs)   bands (ev):

    -8.8516  -7.7172   3.2231   5.4965   5.4965   7.9479   7.9535   7.9535
     8.1062   8.1489   8.1489   9.2745   9.2745  11.5237  11.5237  11.8622
    11.9445  13.5548

          k = 0.3750-0.1250-0.1250 (   758 PWs)   bands (ev):

    -8.3745  -7.6689   4.0837   5.1350   5.2795   5.6492   6.6927   6.8716
     8.0093   8.6641   8.7066   9.6569   9.6722  11.2740  11.8875  12.0894
    12.9180  13.4270

          k =-0.7500 0.2500 0.2500 (   764 PWs)   bands (ev):

    -7.7375  -7.7137   4.0545   4.3415   5.1555   5.6929   5.7962   6.4883
     7.8575   8.6400   8.8969   9.8005  10.0352  10.9602  12.2262  12.4543
    13.3282  13.3419

          k = 0.2500 0.2500-0.2500 (   756 PWs)   bands (ev):

    -8.3259  -7.7255   4.1801   5.0368   5.3559   5.8154   6.5141   6.5945
     8.0675   8.5855   8.5883   9.9441   9.9636  11.2050  11.9210  12.0801
    13.2725  13.2744

          k =-0.8750 0.6250 0.1250 (   767 PWs)   bands (ev):

    -7.7999  -7.6535   4.0901   4.5930   5.2457   5.5396   5.7651   6.0532
     8.2651   8.7017   8.7173   9.6713   9.7780  11.6866  11.7985  12.3666
    13.1709  13.5236

          k =-0.5000 0.5000 0.0000 (   759 PWs)   bands (ev):

    -7.8313  -7.6243   4.1326   5.1002   5.1193   5.4331   5.6818   5.7174
     8.2919   8.7251   8.8910   9.4265   9.7746  11.7067  11.7741  12.3677
    13.0436  13.7388

          k =-0.5000-0.5000 0.5000 (   780 PWs)   bands (ev):

    -7.7253  -7.7173   3.2337   4.4748   5.5299   5.5312   6.8197   6.8224
     7.4406   8.6250   8.7277   9.6502   9.8331  11.2184  12.2397  12.4486
    13.6689  13.7662

          k = 0.1250 0.1250 0.1250 (   748 PWs)   bands (ev):

    -8.7046  -7.9060   3.7192   5.6451   5.6451   6.7569   7.4123   7.4123
     8.1768   8.1768   8.3085   9.7781   9.7781  11.4843  11.4843  11.7593
    12.8845  13.4020

          k =-1.0000 0.5000 0.5000 (   754 PWs)   bands (ev):

    -8.2279  -7.8312   4.1140   4.8007   5.6182   5.6464   6.9483   7.0022
     7.8224   8.7105   8.9530   9.1076   9.4132  11.3942  11.8812  12.1230
    12.5613  13.5906

          k =-0.6250 0.3750 0.3750 (   764 PWs)   bands (ev):

    -7.7323  -7.7145   3.5222   4.4744   5.4322   5.6012   6.1922   6.6613
     7.7286   8.6336   8.8192   9.8018   9.8410  11.0935  12.2335  12.4519
    13.5011  13.5105

          k =-0.6250-0.6250 0.8750 (   757 PWs)   bands (ev):

    -8.1054  -7.9616   4.3226   4.5363   5.8034   5.9175   6.5546   6.6691
     7.9496   8.6086   8.6633   9.5791   9.7246  11.3261  11.9125  12.0789
    12.8578  13.4507

          k =-0.2500-0.7500 0.7500 (   764 PWs)   bands (ev):

    -7.7292  -7.7220   4.1839   4.1891   5.3378   5.4625   5.9290   6.3075
     8.2190   8.5751   8.6952   9.7247   9.9297  11.6800  11.8215  12.3643
    13.2950  13.3262

          k =-0.2500-0.2500-0.2500 (   748 PWs)   bands (ev):

    -8.3380  -8.3135   4.8388   5.2630   5.8623   5.8623   6.9473   6.9473
     8.1993   8.1993   8.3250  10.1649  10.1649  11.4444  11.4444  11.6198
    13.2338  13.2338

 ------ SPIN DOWN ----------


          k = 0.0000 0.0000 0.0000 (   731 PWs)   bands (ev):

    -8.8516  -7.7172   3.2230   5.4965   5.4965   7.9479   7.9535   7.9535
     8.1059   8.1489   8.1489   9.2744   9.2744  11.5238  11.5238  11.8620
    11.9444  13.5548

          k = 0.3750-0.1250-0.1250 (   758 PWs)   bands (ev):

    -8.3745  -7.6689   4.0837   5.1350   5.2795   5.6491   6.6926   6.8716
     8.0091   8.6640   8.7066   9.6569   9.6721  11.2741  11.8876  12.0892
    12.9180  13.4270

          k =-0.7500 0.2500 0.2500 (   764 PWs)   bands (ev):

    -7.7375  -7.7137   4.0545   4.3415   5.1554   5.6929   5.7962   6.4883
     7.8574   8.6399   8.8968   9.8005  10.0352  10.9603  12.2263  12.4541
    13.3282  13.3419

          k = 0.2500 0.2500-0.2500 (   756 PWs)   bands (ev):

    -8.3258  -7.7255   4.1800   5.0368   5.3559   5.8154   6.5141   6.5945
     8.0674   8.5854   8.5883   9.9441   9.9636  11.2050  11.9211  12.0799
    13.2725  13.2745

          k =-0.8750 0.6250 0.1250 (   767 PWs)   bands (ev):

    -7.7999  -7.6535   4.0901   4.5930   5.2457   5.5396   5.7651   6.0532
     8.2649   8.7016   8.7172   9.6714   9.7780  11.6867  11.7985  12.3665
    13.1710  13.5236

          k =-0.5000 0.5000 0.0000 (   759 PWs)   bands (ev):

    -7.8313  -7.6242   4.1326   5.1002   5.1193   5.4331   5.6818   5.7174
     8.2916   8.7250   8.8910   9.4265   9.7746  11.7067  11.7740  12.3676
    13.0436  13.7389

          k =-0.5000-0.5000 0.5000 (   780 PWs)   bands (ev):

    -7.7253  -7.7173   3.2337   4.4748   5.5299   5.5311   6.8197   6.8224
     7.4405   8.6249   8.7275   9.6502   9.8331  11.2184  12.2398  12.4485
    13.6690  13.7662

          k = 0.1250 0.1250 0.1250 (   748 PWs)   bands (ev):

    -8.7046  -7.9060   3.7191   5.6450   5.6450   6.7568   7.4123   7.4123
     8.1768   8.1768   8.3083   9.7781   9.7781  11.4844  11.4844  11.7592
    12.8844  13.4020

          k =-1.0000 0.5000 0.5000 (   754 PWs)   bands (ev):

    -8.2279  -7.8312   4.1140   4.8007   5.6182   5.6464   6.9483   7.0021
     7.8223   8.7105   8.9529   9.1076   9.4132  11.3942  11.8813  12.1228
    12.5613  13.5906

          k =-0.6250 0.3750 0.3750 (   764 PWs)   bands (ev):

    -7.7323  -7.7145   3.5222   4.4744   5.4322   5.6012   6.1922   6.6613
     7.7285   8.6335   8.8191   9.8018   9.8410  11.0935  12.2336  12.4518
    13.5011  13.5106

          k =-0.6250-0.6250 0.8750 (   757 PWs)   bands (ev):

    -8.1054  -7.9616   4.3226   4.5363   5.8034   5.9174   6.5546   6.6691
     7.9495   8.6086   8.6631   9.5791   9.7246  11.3261  11.9126  12.0787
    12.8578  13.4507

          k =-0.2500-0.7500 0.7500 (   764 PWs)   bands (ev):

    -7.7292  -7.7220   4.1839   4.1890   5.3378   5.4625   5.9290   6.3075
     8.2188   8.5750   8.6951   9.7247   9.9297  11.6801  11.8214  12.3642
    13.2950  13.3263

          k =-0.2500-0.2500-0.2500 (   748 PWs)   bands (ev):

    -8.3380  -8.3135   4.8387   5.2630   5.8622   5.8622   6.9473   6.9473
     8.1993   8.1993   8.3247  10.1649  10.1649  11.4445  11.4445  11.6196
    13.2338  13.2338

     the Fermi energy is    11.7011 ev

!    total energy              =    -175.39094334 Ry
     Harris-Foulkes estimate   =    -175.39091577 Ry
     estimated scf accuracy    <       0.00000017 Ry

     The total energy is the sum of the following terms:

     one-electron contribution =       1.17506900 Ry
     hartree contribution      =      28.07661930 Ry
     xc contribution           =     -67.13170273 Ry
     ewald contribution        =    -137.50929535 Ry
     Hubbard energy            =       0.00000000 Ry
     smearing contrib. (-TS)   =      -0.00163356 Ry

     total magnetization       =     0.00 Bohr mag/cell
     absolute magnetization    =     7.25 Bohr mag/cell

     convergence has been achieved in  12 iterations

     Writing output data file feo.save
 
     init_run     :      2.65s CPU      2.78s WALL (       1 calls)
     electrons    :     23.54s CPU     25.47s WALL (       1 calls)

     Called by init_run:
     wfcinit      :      0.41s CPU      0.43s WALL (       1 calls)
     potinit      :      0.37s CPU      0.44s WALL (       1 calls)

     Called by electrons:
     c_bands      :     11.44s CPU     12.18s WALL (      12 calls)
     sum_band     :      5.22s CPU      5.60s WALL (      12 calls)
     v_of_rho     :      3.79s CPU      4.28s WALL (      13 calls)
     newd         :      2.18s CPU      2.30s WALL (      13 calls)
     mix_rho      :      0.37s CPU      0.40s WALL (      12 calls)

     Called by c_bands:
     init_us_2    :      0.14s CPU      0.14s WALL (     182 calls)
     cegterg      :     11.02s CPU     11.70s WALL (      84 calls)

     Called by *egterg:
     h_psi        :     10.30s CPU     10.78s WALL (     309 calls)
     s_psi        :      0.22s CPU      0.19s WALL (     316 calls)
     g_psi        :      0.03s CPU      0.04s WALL (     218 calls)
     cdiaghg      :      0.32s CPU      0.33s WALL (     302 calls)

     Called by h_psi:
     add_vuspsi   :      0.21s CPU      0.21s WALL (     309 calls)

     General routines
     calbec       :      0.34s CPU      0.42s WALL (     793 calls)
     fft          :      2.17s CPU      2.45s WALL (     393 calls)
     ffts         :      0.07s CPU      0.09s WALL (      50 calls)
     fftw         :      9.48s CPU     10.17s WALL (    9422 calls)
     interpolate  :      0.39s CPU      0.56s WALL (      50 calls)
     davcio       :      0.00s CPU      0.09s WALL (     532 calls)
 
     Parallel routines
     fft_scatter  :      0.90s CPU      1.07s WALL (    9865 calls)
     EXX routines
 
     PWSCF        :    26.47s CPU        28.60s WALL

 
   This run was terminated on:  16:19:49  15Jun2012            

=------------------------------------------------------------------------------=
   JOB DONE.
=------------------------------------------------------------------------------=
