
     Program PWSCF v.5.0        starts on 17Jun2012 at 21:39: 8 

     This program is part of the open-source Quantum ESPRESSO suite
     for quantum simulation of materials; please cite
         "P. Giannozzi et al., J. Phys.:Condens. Matter 21 395502 (2009);
          URL http://www.quantum-espresso.org", 
     in publications or presentations arising from this work. More details at
     http://www.quantum-espresso.org/quote.php

     Parallel version (MPI), running on     4 processors
     R & G space division:  proc/pool =    4

     Current dimensions of program PWSCF are:
     Max number of different atomic species (ntypx) = 10
     Max number of k-points (npk) =  40000
     Max angular momentum in pseudopotentials (lmaxx) =  3
     Waiting for input...
     Reading input from standard input
               file O.pbe-rrkjus.UPF: wavefunction(s)  2S renormalized
               file O.pbe-rrkjus.UPF: wavefunction(s)  2S renormalized

     Subspace diagonalization in iterative solution of the eigenvalue problem:
     a serial algorithm will be used

 
     Parallelization info
     --------------------
     sticks:   dense  smooth     PW     G-vecs:    dense   smooth      PW
     Min        1137     455    131                48485    12292    1908
     Max        1138     456    132                48486    12300    1909
     Sum        4549    1821    527               193941    49181    7635
 


     bravais-lattice index     =            0
     lattice parameter (alat)  =       8.2100  a.u.
     unit-cell volume          =    2213.5506 (a.u.)^3
     number of atoms/cell      =           24
     number of atomic types    =            3
     number of electrons       =       224.00
     number of Kohn-Sham states=          112
     kinetic-energy cutoff     =      30.0000  Ry
     charge density cutoff     =     300.0000  Ry
     convergence threshold     =      1.0E-08
     mixing beta               =       0.3000
     number of iterations used =            8  plain     mixing
     Exchange-correlation      =  SLA  PW   PBE  PBE ( 1 4 3 4 0)
     EXX-fraction              =        0.00

     celldm(1)=   8.210000  celldm(2)=   0.000000  celldm(3)=   0.000000
     celldm(4)=   0.000000  celldm(5)=   0.000000  celldm(6)=   0.000000

     crystal axes: (cart. coord. in units of alat)
               a(1) = (   1.000000   1.000000   1.000000 )  
               a(2) = (  -1.000000   1.000000   1.000000 )  
               a(3) = (  -1.000000  -1.000000   1.000000 )  

     reciprocal axes: (cart. coord. in units 2 pi/alat)
               b(1) = (  0.500000  0.000000  0.500000 )  
               b(2) = ( -0.500000  0.500000  0.000000 )  
               b(3) = (  0.000000 -0.500000  0.500000 )  


     PseudoPot. # 1 for Cu read from file:
     ../pseudo/Cu.pbe-d-rrkjus.UPF
     MD5 check sum: 855c9c66b119533e70b4be5d3ca221fe
     Pseudo is Ultrasoft, Zval = 11.0
     Generated by new atomic code, or converted to UPF format
     Using radial grid of  899 points,  3 beta functions with: 
                l(1) =   2
                l(2) =   2
                l(3) =   1
     Q(r) pseudized with 0 coefficients 


     PseudoPot. # 2 for O  read from file:
     ../pseudo/O.pbe-rrkjus.UPF
     MD5 check sum: 390ba29e75625707450f3bd3f0eb6be9
     Pseudo is Ultrasoft, Zval =  6.0
     Generated by new atomic code, or converted to UPF format
     Using radial grid of 1269 points,  4 beta functions with: 
                l(1) =   0
                l(2) =   0
                l(3) =   1
                l(4) =   1
     Q(r) pseudized with 0 coefficients 


     PseudoPot. # 3 for O  read from file:
     ../pseudo/O.pbe-rrkjus.UPF
     MD5 check sum: 390ba29e75625707450f3bd3f0eb6be9
     Pseudo is Ultrasoft, Zval =  6.0
     Generated by new atomic code, or converted to UPF format
     Using radial grid of 1269 points,  4 beta functions with: 
                l(1) =   0
                l(2) =   0
                l(3) =   1
                l(4) =   1
     Q(r) pseudized with 0 coefficients 


     atomic species   valence    mass     pseudopotential
        Cu            11.00     1.00000     Cu( 1.00)
        O1             6.00     1.00000     O ( 1.00)
        O              6.00     1.00000     O ( 1.00)
 -----
     simplified LDA+U calculation, Hubbard_lmax = 2
     atomic species  L   Hubbard U  Hubbard alpha
        Cu           2    0.000000    0.000000
        O1           1    0.000000    0.000000
        O            1    0.000000    0.000000
 -----

     24 Sym. Ops. (no inversion) found



   Cartesian axes

     site n.     atom                  positions (alat units)
         1           Cu  tau(   1) = (   0.2500000   0.2500000   0.2500000  )
         2           Cu  tau(   2) = (  -0.7500000   0.7500000   0.7500000  )
         3           Cu  tau(   3) = (  -0.2500000  -0.2500000   0.2500000  )
         4           Cu  tau(   4) = (   0.2500000   0.7500000   0.7500000  )
         5           Cu  tau(   5) = (  -0.7500000  -0.2500000   0.7500000  )
         6           Cu  tau(   6) = (  -1.2500000  -0.2500000   1.2500000  )
         7           Cu  tau(   7) = (   0.2500000   1.2500000   1.2500000  )
         8           Cu  tau(   8) = (  -0.2500000   0.2500000   0.7500000  )
         9           Cu  tau(   9) = (  -0.2500000   0.2500000   1.7500000  )
        10           Cu  tau(  10) = (  -1.2500000   0.2500000   1.7500000  )
        11           Cu  tau(  11) = (  -0.2500000   1.2500000   1.7500000  )
        12           Cu  tau(  12) = (  -0.7500000   0.2500000   1.2500000  )
        13           Cu  tau(  13) = (  -0.2500000   0.7500000   1.2500000  )
        14           Cu  tau(  14) = (   0.2500000   0.2500000   1.2500000  )
        15           Cu  tau(  15) = (  -0.2500000  -0.2500000   1.2500000  )
        16           Cu  tau(  16) = (  -0.7500000   0.7500000   1.7500000  )
        17           O1  tau(  17) = (   0.0000000   0.0000000   0.0000000  )
        18           O   tau(  18) = (   0.5000000   0.5000000   0.5000000  )
        19           O   tau(  19) = (  -0.5000000   0.5000000   0.5000000  )
        20           O   tau(  20) = (  -0.5000000  -0.5000000   0.5000000  )
        21           O   tau(  21) = (   0.0000000   1.0000000   1.0000000  )
        22           O   tau(  22) = (   0.0000000   0.0000000   1.0000000  )
        23           O   tau(  23) = (  -1.0000000   0.0000000   1.0000000  )
        24           O   tau(  24) = (  -0.5000000   0.5000000   1.5000000  )

     number of k points=     3
                       cart. coord. in units 2pi/alat
        k(    1) = (   0.0000000   0.0000000   0.0000000), wk =   0.2500000
        k(    2) = (   0.0000000   0.2500000  -0.2500000), wk =   1.5000000
        k(    3) = (   0.0000000   0.0000000  -0.5000000), wk =   0.2500000

     Dense  grid:   193941 G-vectors     FFT dimensions: (  80,  80,  80)

     Smooth grid:    49181 G-vectors     FFT dimensions: (  50,  50,  50)

     Largest allocated arrays     est. size (Mb)     dimensions
        Kohn-Sham Wavefunctions         2.63 Mb     (   1538,  112)
        Atomic wavefunctions            3.00 Mb     (   1538,  128)
        NL pseudopotentials             6.38 Mb     (   1538,  272)
        Each V/rho on FFT grid          1.95 Mb     ( 128000)
        Each G-vector array             0.37 Mb     (  48486)
        G-vector shells                 0.01 Mb     (    939)
     Largest temporary arrays     est. size (Mb)     dimensions
        Auxiliary wavefunctions        10.51 Mb     (   1538,  448)
        Each subspace H/S matrix        3.06 Mb     ( 448, 448)
        Each <psi_i|beta_j> matrix      0.46 Mb     (    272,  112)
        Arrays for rho mixing          15.62 Mb     ( 128000,   8)

     Initial potential from superposition of free atoms

     starting charge  223.99297, renormalised to  224.00000
     Number of +U iterations with fixed ns =  0
     Starting occupations:
 --- enter write_ns ---
 LDA+U parameters:
U( 1)     =  0.00000000
alpha( 1) =  0.00000000
U( 2)     =  0.00000000
alpha( 2) =  0.00000000
U( 3)     =  0.00000000
alpha( 3) =  0.00000000
atom    1   Tr[ns(na)] =  10.00000
    eigenvalues: 
  1.000  1.000  1.000  1.000  1.000
    eigenvectors:
  1.000  0.000  0.000  0.000  0.000
  0.000  1.000  0.000  0.000  0.000
  0.000  0.000  1.000  0.000  0.000
  0.000  0.000  0.000  1.000  0.000
  0.000  0.000  0.000  0.000  1.000
    occupations:
  1.000  0.000  0.000  0.000  0.000
  0.000  1.000  0.000  0.000  0.000
  0.000  0.000  1.000  0.000  0.000
  0.000  0.000  0.000  1.000  0.000
  0.000  0.000  0.000  0.000  1.000
atom    2   Tr[ns(na)] =  10.00000
    eigenvalues: 
  1.000  1.000  1.000  1.000  1.000
    eigenvectors:
  1.000  0.000  0.000  0.000  0.000
  0.000  1.000  0.000  0.000  0.000
  0.000  0.000  1.000  0.000  0.000
  0.000  0.000  0.000  1.000  0.000
  0.000  0.000  0.000  0.000  1.000
    occupations:
  1.000  0.000  0.000  0.000  0.000
  0.000  1.000  0.000  0.000  0.000
  0.000  0.000  1.000  0.000  0.000
  0.000  0.000  0.000  1.000  0.000
  0.000  0.000  0.000  0.000  1.000
atom    3   Tr[ns(na)] =  10.00000
    eigenvalues: 
  1.000  1.000  1.000  1.000  1.000
    eigenvectors:
  1.000  0.000  0.000  0.000  0.000
  0.000  1.000  0.000  0.000  0.000
  0.000  0.000  1.000  0.000  0.000
  0.000  0.000  0.000  1.000  0.000
  0.000  0.000  0.000  0.000  1.000
    occupations:
  1.000  0.000  0.000  0.000  0.000
  0.000  1.000  0.000  0.000  0.000
  0.000  0.000  1.000  0.000  0.000
  0.000  0.000  0.000  1.000  0.000
  0.000  0.000  0.000  0.000  1.000
atom    4   Tr[ns(na)] =  10.00000
    eigenvalues: 
  1.000  1.000  1.000  1.000  1.000
    eigenvectors:
  1.000  0.000  0.000  0.000  0.000
  0.000  1.000  0.000  0.000  0.000
  0.000  0.000  1.000  0.000  0.000
  0.000  0.000  0.000  1.000  0.000
  0.000  0.000  0.000  0.000  1.000
    occupations:
  1.000  0.000  0.000  0.000  0.000
  0.000  1.000  0.000  0.000  0.000
  0.000  0.000  1.000  0.000  0.000
  0.000  0.000  0.000  1.000  0.000
  0.000  0.000  0.000  0.000  1.000
atom    5   Tr[ns(na)] =  10.00000
    eigenvalues: 
  1.000  1.000  1.000  1.000  1.000
    eigenvectors:
  1.000  0.000  0.000  0.000  0.000
  0.000  1.000  0.000  0.000  0.000
  0.000  0.000  1.000  0.000  0.000
  0.000  0.000  0.000  1.000  0.000
  0.000  0.000  0.000  0.000  1.000
    occupations:
  1.000  0.000  0.000  0.000  0.000
  0.000  1.000  0.000  0.000  0.000
  0.000  0.000  1.000  0.000  0.000
  0.000  0.000  0.000  1.000  0.000
  0.000  0.000  0.000  0.000  1.000
atom    6   Tr[ns(na)] =  10.00000
    eigenvalues: 
  1.000  1.000  1.000  1.000  1.000
    eigenvectors:
  1.000  0.000  0.000  0.000  0.000
  0.000  1.000  0.000  0.000  0.000
  0.000  0.000  1.000  0.000  0.000
  0.000  0.000  0.000  1.000  0.000
  0.000  0.000  0.000  0.000  1.000
    occupations:
  1.000  0.000  0.000  0.000  0.000
  0.000  1.000  0.000  0.000  0.000
  0.000  0.000  1.000  0.000  0.000
  0.000  0.000  0.000  1.000  0.000
  0.000  0.000  0.000  0.000  1.000
atom    7   Tr[ns(na)] =  10.00000
    eigenvalues: 
  1.000  1.000  1.000  1.000  1.000
    eigenvectors:
  1.000  0.000  0.000  0.000  0.000
  0.000  1.000  0.000  0.000  0.000
  0.000  0.000  1.000  0.000  0.000
  0.000  0.000  0.000  1.000  0.000
  0.000  0.000  0.000  0.000  1.000
    occupations:
  1.000  0.000  0.000  0.000  0.000
  0.000  1.000  0.000  0.000  0.000
  0.000  0.000  1.000  0.000  0.000
  0.000  0.000  0.000  1.000  0.000
  0.000  0.000  0.000  0.000  1.000
atom    8   Tr[ns(na)] =  10.00000
    eigenvalues: 
  1.000  1.000  1.000  1.000  1.000
    eigenvectors:
  1.000  0.000  0.000  0.000  0.000
  0.000  1.000  0.000  0.000  0.000
  0.000  0.000  1.000  0.000  0.000
  0.000  0.000  0.000  1.000  0.000
  0.000  0.000  0.000  0.000  1.000
    occupations:
  1.000  0.000  0.000  0.000  0.000
  0.000  1.000  0.000  0.000  0.000
  0.000  0.000  1.000  0.000  0.000
  0.000  0.000  0.000  1.000  0.000
  0.000  0.000  0.000  0.000  1.000
atom    9   Tr[ns(na)] =  10.00000
    eigenvalues: 
  1.000  1.000  1.000  1.000  1.000
    eigenvectors:
  1.000  0.000  0.000  0.000  0.000
  0.000  1.000  0.000  0.000  0.000
  0.000  0.000  1.000  0.000  0.000
  0.000  0.000  0.000  1.000  0.000
  0.000  0.000  0.000  0.000  1.000
    occupations:
  1.000  0.000  0.000  0.000  0.000
  0.000  1.000  0.000  0.000  0.000
  0.000  0.000  1.000  0.000  0.000
  0.000  0.000  0.000  1.000  0.000
  0.000  0.000  0.000  0.000  1.000
atom   10   Tr[ns(na)] =  10.00000
    eigenvalues: 
  1.000  1.000  1.000  1.000  1.000
    eigenvectors:
  1.000  0.000  0.000  0.000  0.000
  0.000  1.000  0.000  0.000  0.000
  0.000  0.000  1.000  0.000  0.000
  0.000  0.000  0.000  1.000  0.000
  0.000  0.000  0.000  0.000  1.000
    occupations:
  1.000  0.000  0.000  0.000  0.000
  0.000  1.000  0.000  0.000  0.000
  0.000  0.000  1.000  0.000  0.000
  0.000  0.000  0.000  1.000  0.000
  0.000  0.000  0.000  0.000  1.000
atom   11   Tr[ns(na)] =  10.00000
    eigenvalues: 
  1.000  1.000  1.000  1.000  1.000
    eigenvectors:
  1.000  0.000  0.000  0.000  0.000
  0.000  1.000  0.000  0.000  0.000
  0.000  0.000  1.000  0.000  0.000
  0.000  0.000  0.000  1.000  0.000
  0.000  0.000  0.000  0.000  1.000
    occupations:
  1.000  0.000  0.000  0.000  0.000
  0.000  1.000  0.000  0.000  0.000
  0.000  0.000  1.000  0.000  0.000
  0.000  0.000  0.000  1.000  0.000
  0.000  0.000  0.000  0.000  1.000
atom   12   Tr[ns(na)] =  10.00000
    eigenvalues: 
  1.000  1.000  1.000  1.000  1.000
    eigenvectors:
  1.000  0.000  0.000  0.000  0.000
  0.000  1.000  0.000  0.000  0.000
  0.000  0.000  1.000  0.000  0.000
  0.000  0.000  0.000  1.000  0.000
  0.000  0.000  0.000  0.000  1.000
    occupations:
  1.000  0.000  0.000  0.000  0.000
  0.000  1.000  0.000  0.000  0.000
  0.000  0.000  1.000  0.000  0.000
  0.000  0.000  0.000  1.000  0.000
  0.000  0.000  0.000  0.000  1.000
atom   13   Tr[ns(na)] =  10.00000
    eigenvalues: 
  1.000  1.000  1.000  1.000  1.000
    eigenvectors:
  1.000  0.000  0.000  0.000  0.000
  0.000  1.000  0.000  0.000  0.000
  0.000  0.000  1.000  0.000  0.000
  0.000  0.000  0.000  1.000  0.000
  0.000  0.000  0.000  0.000  1.000
    occupations:
  1.000  0.000  0.000  0.000  0.000
  0.000  1.000  0.000  0.000  0.000
  0.000  0.000  1.000  0.000  0.000
  0.000  0.000  0.000  1.000  0.000
  0.000  0.000  0.000  0.000  1.000
atom   14   Tr[ns(na)] =  10.00000
    eigenvalues: 
  1.000  1.000  1.000  1.000  1.000
    eigenvectors:
  1.000  0.000  0.000  0.000  0.000
  0.000  1.000  0.000  0.000  0.000
  0.000  0.000  1.000  0.000  0.000
  0.000  0.000  0.000  1.000  0.000
  0.000  0.000  0.000  0.000  1.000
    occupations:
  1.000  0.000  0.000  0.000  0.000
  0.000  1.000  0.000  0.000  0.000
  0.000  0.000  1.000  0.000  0.000
  0.000  0.000  0.000  1.000  0.000
  0.000  0.000  0.000  0.000  1.000
atom   15   Tr[ns(na)] =  10.00000
    eigenvalues: 
  1.000  1.000  1.000  1.000  1.000
    eigenvectors:
  1.000  0.000  0.000  0.000  0.000
  0.000  1.000  0.000  0.000  0.000
  0.000  0.000  1.000  0.000  0.000
  0.000  0.000  0.000  1.000  0.000
  0.000  0.000  0.000  0.000  1.000
    occupations:
  1.000  0.000  0.000  0.000  0.000
  0.000  1.000  0.000  0.000  0.000
  0.000  0.000  1.000  0.000  0.000
  0.000  0.000  0.000  1.000  0.000
  0.000  0.000  0.000  0.000  1.000
atom   16   Tr[ns(na)] =  10.00000
    eigenvalues: 
  1.000  1.000  1.000  1.000  1.000
    eigenvectors:
  1.000  0.000  0.000  0.000  0.000
  0.000  1.000  0.000  0.000  0.000
  0.000  0.000  1.000  0.000  0.000
  0.000  0.000  0.000  1.000  0.000
  0.000  0.000  0.000  0.000  1.000
    occupations:
  1.000  0.000  0.000  0.000  0.000
  0.000  1.000  0.000  0.000  0.000
  0.000  0.000  1.000  0.000  0.000
  0.000  0.000  0.000  1.000  0.000
  0.000  0.000  0.000  0.000  1.000
atom   17   Tr[ns(na)] =   4.00000
    eigenvalues: 
  0.667  0.667  0.667
    eigenvectors:
  1.000  0.000  0.000
  0.000  1.000  0.000
  0.000  0.000  1.000
    occupations:
  0.667  0.000  0.000
  0.000  0.667  0.000
  0.000  0.000  0.667
atom   18   Tr[ns(na)] =   4.00000
    eigenvalues: 
  0.667  0.667  0.667
    eigenvectors:
  1.000  0.000  0.000
  0.000  1.000  0.000
  0.000  0.000  1.000
    occupations:
  0.667  0.000  0.000
  0.000  0.667  0.000
  0.000  0.000  0.667
atom   19   Tr[ns(na)] =   4.00000
    eigenvalues: 
  0.667  0.667  0.667
    eigenvectors:
  1.000  0.000  0.000
  0.000  1.000  0.000
  0.000  0.000  1.000
    occupations:
  0.667  0.000  0.000
  0.000  0.667  0.000
  0.000  0.000  0.667
atom   20   Tr[ns(na)] =   4.00000
    eigenvalues: 
  0.667  0.667  0.667
    eigenvectors:
  1.000  0.000  0.000
  0.000  1.000  0.000
  0.000  0.000  1.000
    occupations:
  0.667  0.000  0.000
  0.000  0.667  0.000
  0.000  0.000  0.667
atom   21   Tr[ns(na)] =   4.00000
    eigenvalues: 
  0.667  0.667  0.667
    eigenvectors:
  1.000  0.000  0.000
  0.000  1.000  0.000
  0.000  0.000  1.000
    occupations:
  0.667  0.000  0.000
  0.000  0.667  0.000
  0.000  0.000  0.667
atom   22   Tr[ns(na)] =   4.00000
    eigenvalues: 
  0.667  0.667  0.667
    eigenvectors:
  1.000  0.000  0.000
  0.000  1.000  0.000
  0.000  0.000  1.000
    occupations:
  0.667  0.000  0.000
  0.000  0.667  0.000
  0.000  0.000  0.667
atom   23   Tr[ns(na)] =   4.00000
    eigenvalues: 
  0.667  0.667  0.667
    eigenvectors:
  1.000  0.000  0.000
  0.000  1.000  0.000
  0.000  0.000  1.000
    occupations:
  0.667  0.000  0.000
  0.000  0.667  0.000
  0.000  0.000  0.667
atom   24   Tr[ns(na)] =   4.00000
    eigenvalues: 
  0.667  0.667  0.667
    eigenvectors:
  1.000  0.000  0.000
  0.000  1.000  0.000
  0.000  0.000  1.000
    occupations:
  0.667  0.000  0.000
  0.000  0.667  0.000
  0.000  0.000  0.667
N of occupied +U levels = 192.0000000
 --- exit write_ns ---
 Atomic wfc used for LDA+U Projector are NOT orthogonalized
     Starting wfc are  128 randomized atomic wfcs

     total cpu time spent up to now is        5.2 secs

     per-process dynamical memory:    49.4 Mb

     Self-consistent Calculation

     iteration #  1     ecut=    30.00 Ry     beta=0.30
     Davidson diagonalization with overlap
     ethr =  1.00E-02,  avg # of iterations =  2.0
 --- enter write_ns ---
 LDA+U parameters:
U( 1)     =  0.00000000
alpha( 1) =  0.00000000
U( 2)     =  0.00000000
alpha( 2) =  0.00000000
U( 3)     =  0.00000000
alpha( 3) =  0.00000000
atom    1   Tr[ns(na)] =   9.56562
    eigenvalues: 
  0.813  0.989  0.989  0.995  0.995
    eigenvectors:
  0.000  0.196  0.049  0.411  0.344
  0.333  0.350  0.154  0.008  0.156
  0.333  0.002  0.501  0.148  0.015
  0.000  0.049  0.196  0.344  0.411
  0.333  0.403  0.100  0.089  0.074
    occupations:
  0.994 -0.001 -0.001  0.000 -0.002
 -0.001  0.932 -0.059 -0.002  0.059
 -0.001 -0.059  0.932  0.002  0.059
  0.000 -0.002  0.002  0.994  0.000
 -0.002  0.059  0.059  0.000  0.932
atom    2   Tr[ns(na)] =   9.56562
    eigenvalues: 
  0.813  0.989  0.989  0.995  0.995
    eigenvectors:
  0.000  0.104  0.141  0.513  0.242
  0.333  0.056  0.448  0.133  0.030
  0.333  0.486  0.017  0.001  0.162
  0.000  0.141  0.104  0.242  0.513
  0.333  0.213  0.290  0.111  0.052
    occupations:
  0.994  0.001 -0.001  0.000  0.002
  0.001  0.932  0.059  0.002  0.059
 -0.001  0.059  0.932  0.002 -0.059
  0.000  0.002  0.002  0.994  0.000
  0.002  0.059 -0.059  0.000  0.932
atom    3   Tr[ns(na)] =   9.56562
    eigenvalues: 
  0.813  0.989  0.989  0.995  0.995
    eigenvectors:
  0.000  0.187  0.058  0.613  0.142
  0.333  0.370  0.133  0.001  0.162
  0.333  0.000  0.503  0.112  0.052
  0.000  0.058  0.187  0.142  0.613
  0.333  0.385  0.119  0.132  0.031
    occupations:
  0.994  0.001  0.001  0.000 -0.002
  0.001  0.932 -0.059  0.002 -0.059
  0.001 -0.059  0.932 -0.002 -0.059
  0.000  0.002 -0.002  0.994  0.000
 -0.002 -0.059 -0.059  0.000  0.932
atom    4   Tr[ns(na)] =   9.56436
    eigenvalues: 
  0.813  0.989  0.989  0.995  0.995
    eigenvectors:
  0.000  0.183  0.061  0.189  0.567
  0.334  0.378  0.126  0.040  0.122
  0.333  0.000  0.506  0.162  0.000
  0.000  0.061  0.182  0.568  0.189
  0.334  0.378  0.126  0.040  0.122
    occupations:
  0.994  0.001 -0.001  0.000  0.002
  0.001  0.931  0.059  0.002  0.059
 -0.001  0.059  0.932  0.002 -0.059
  0.000  0.002  0.002  0.994  0.000
  0.002  0.059 -0.059  0.000  0.931
atom    5   Tr[ns(na)] =   9.56436
    eigenvalues: 
  0.813  0.989  0.989  0.995  0.995
    eigenvectors:
  0.000  0.183  0.061  0.189  0.567
  0.333  0.000  0.506  0.162  0.000
  0.334  0.378  0.126  0.040  0.122
  0.000  0.061  0.182  0.568  0.189
  0.334  0.378  0.126  0.040  0.122
    occupations:
  0.994  0.001 -0.001  0.000  0.002
  0.001  0.932  0.059  0.002  0.059
 -0.001  0.059  0.931  0.002 -0.059
  0.000  0.002  0.002  0.994  0.000
  0.002  0.059 -0.059  0.000  0.931
atom    6   Tr[ns(na)] =   9.56436
    eigenvalues: 
  0.813  0.989  0.989  0.995  0.995
    eigenvectors:
  0.000  0.183  0.061  0.189  0.567
  0.333  0.000  0.506  0.162  0.000
  0.334  0.378  0.126  0.040  0.122
  0.000  0.061  0.182  0.568  0.189
  0.334  0.378  0.126  0.040  0.122
    occupations:
  0.994  0.001  0.001  0.000 -0.002
  0.001  0.932 -0.059  0.002 -0.059
  0.001 -0.059  0.931 -0.002 -0.059
  0.000  0.002 -0.002  0.994  0.000
 -0.002 -0.059 -0.059  0.000  0.931
atom    7   Tr[ns(na)] =   9.56436
    eigenvalues: 
  0.813  0.989  0.989  0.995  0.995
    eigenvectors:
  0.000  0.183  0.061  0.189  0.567
  0.334  0.378  0.126  0.040  0.122
  0.333  0.000  0.506  0.162  0.000
  0.000  0.061  0.182  0.568  0.189
  0.334  0.378  0.126  0.040  0.122
    occupations:
  0.994 -0.001 -0.001  0.000 -0.002
 -0.001  0.931 -0.059 -0.002  0.059
 -0.001 -0.059  0.932  0.002  0.059
  0.000 -0.002  0.002  0.994  0.000
 -0.002  0.059  0.059  0.000  0.931
atom    8   Tr[ns(na)] =   9.56436
    eigenvalues: 
  0.813  0.989  0.989  0.995  0.995
    eigenvectors:
  0.000  0.000  0.243  0.757  0.000
  0.334  0.378  0.126  0.040  0.122
  0.334  0.378  0.126  0.040  0.122
  0.000  0.244  0.000  0.000  0.756
  0.333  0.000  0.506  0.162  0.000
    occupations:
  0.994 -0.001  0.001  0.000  0.002
 -0.001  0.931  0.059 -0.002 -0.059
  0.001  0.059  0.931 -0.002  0.059
  0.000 -0.002 -0.002  0.994  0.000
  0.002 -0.059  0.059  0.000  0.932
atom    9   Tr[ns(na)] =   9.56562
    eigenvalues: 
  0.813  0.989  0.989  0.995  0.995
    eigenvectors:
  0.000  0.238  0.007  0.019  0.736
  0.333  0.205  0.299  0.142  0.021
  0.333  0.061  0.442  0.098  0.065
  0.000  0.007  0.238  0.736  0.019
  0.333  0.489  0.014  0.004  0.159
    occupations:
  0.994 -0.001  0.001  0.000  0.002
 -0.001  0.932  0.059 -0.002 -0.059
  0.001  0.059  0.932 -0.002  0.059
  0.000 -0.002 -0.002  0.994  0.000
  0.002 -0.059  0.059  0.000  0.932
atom   10   Tr[ns(na)] =   9.56436
    eigenvalues: 
  0.813  0.989  0.989  0.995  0.995
    eigenvectors:
  0.000  0.183  0.061  0.189  0.567
  0.334  0.378  0.126  0.040  0.122
  0.333  0.000  0.506  0.162  0.000
  0.000  0.061  0.182  0.568  0.189
  0.334  0.378  0.126  0.040  0.122
    occupations:
  0.994 -0.001  0.001  0.000  0.002
 -0.001  0.931  0.059 -0.002 -0.059
  0.001  0.059  0.932 -0.002  0.059
  0.000 -0.002 -0.002  0.994  0.000
  0.002 -0.059  0.059  0.000  0.931
atom   11   Tr[ns(na)] =   9.56436
    eigenvalues: 
  0.813  0.989  0.989  0.995  0.995
    eigenvectors:
  0.000  0.183  0.061  0.189  0.567
  0.333  0.000  0.506  0.162  0.000
  0.334  0.378  0.126  0.040  0.122
  0.000  0.061  0.182  0.568  0.189
  0.334  0.378  0.126  0.040  0.122
    occupations:
  0.994 -0.001  0.001  0.000  0.002
 -0.001  0.932  0.059 -0.002 -0.059
  0.001  0.059  0.931 -0.002  0.059
  0.000 -0.002 -0.002  0.994  0.000
  0.002 -0.059  0.059  0.000  0.931
atom   12   Tr[ns(na)] =   9.56436
    eigenvalues: 
  0.813  0.989  0.989  0.995  0.995
    eigenvectors:
  0.000  0.183  0.061  0.189  0.567
  0.333  0.000  0.506  0.162  0.000
  0.334  0.378  0.126  0.040  0.122
  0.000  0.061  0.182  0.568  0.189
  0.334  0.378  0.126  0.040  0.122
    occupations:
  0.994 -0.001 -0.001  0.000 -0.002
 -0.001  0.932 -0.059 -0.002  0.059
 -0.001 -0.059  0.931  0.002  0.059
  0.000 -0.002  0.002  0.994  0.000
 -0.002  0.059  0.059  0.000  0.931
atom   13   Tr[ns(na)] =   9.56436
    eigenvalues: 
  0.813  0.989  0.989  0.995  0.995
    eigenvectors:
  0.000  0.183  0.061  0.189  0.567
  0.334  0.378  0.126  0.040  0.122
  0.333  0.000  0.506  0.162  0.000
  0.000  0.061  0.182  0.568  0.189
  0.334  0.378  0.126  0.040  0.122
    occupations:
  0.994  0.001  0.001  0.000 -0.002
  0.001  0.931 -0.059  0.002 -0.059
  0.001 -0.059  0.932 -0.002 -0.059
  0.000  0.002 -0.002  0.994  0.000
 -0.002 -0.059 -0.059  0.000  0.931
atom   14   Tr[ns(na)] =   9.56436
    eigenvalues: 
  0.813  0.989  0.989  0.995  0.995
    eigenvectors:
  0.000  0.000  0.243  0.757  0.000
  0.334  0.378  0.126  0.040  0.122
  0.334  0.378  0.126  0.040  0.122
  0.000  0.244  0.000  0.000  0.756
  0.333  0.000  0.506  0.162  0.000
    occupations:
  0.994 -0.001 -0.001  0.000 -0.002
 -0.001  0.931 -0.059 -0.002  0.059
 -0.001 -0.059  0.931  0.002  0.059
  0.000 -0.002  0.002  0.994  0.000
 -0.002  0.059  0.059  0.000  0.932
atom   15   Tr[ns(na)] =   9.56436
    eigenvalues: 
  0.813  0.989  0.989  0.995  0.995
    eigenvectors:
  0.000  0.000  0.243  0.757  0.000
  0.334  0.378  0.126  0.040  0.122
  0.334  0.378  0.126  0.040  0.122
  0.000  0.244  0.000  0.000  0.756
  0.333  0.000  0.506  0.162  0.000
    occupations:
  0.994  0.001  0.001  0.000 -0.002
  0.001  0.931 -0.059  0.002 -0.059
  0.001 -0.059  0.931 -0.002 -0.059
  0.000  0.002 -0.002  0.994  0.000
 -0.002 -0.059 -0.059  0.000  0.932
atom   16   Tr[ns(na)] =   9.56436
    eigenvalues: 
  0.813  0.989  0.989  0.995  0.995
    eigenvectors:
  0.000  0.000  0.243  0.757  0.000
  0.334  0.378  0.126  0.040  0.122
  0.334  0.378  0.126  0.040  0.122
  0.000  0.244  0.000  0.000  0.756
  0.333  0.000  0.506  0.162  0.000
    occupations:
  0.994  0.001 -0.001  0.000  0.002
  0.001  0.931  0.059  0.002  0.059
 -0.001  0.059  0.931  0.002 -0.059
  0.000  0.002  0.002  0.994  0.000
  0.002  0.059 -0.059  0.000  0.932
atom   17   Tr[ns(na)] =   5.98000
    eigenvalues: 
  0.997  0.997  0.997
    eigenvectors:
  0.245  0.171  0.583
  0.696  0.000  0.304
  0.059  0.828  0.113
    occupations:
  0.997  0.000  0.000
  0.000  0.997  0.000
  0.000  0.000  0.997
atom   18   Tr[ns(na)] =   5.98032
    eigenvalues: 
  0.997  0.997  0.997
    eigenvectors:
  0.458  0.209  0.333
  0.539  0.128  0.333
  0.003  0.663  0.333
    occupations:
  0.997  0.000  0.000
  0.000  0.997  0.000
  0.000  0.000  0.997
atom   19   Tr[ns(na)] =   5.98032
    eigenvalues: 
  0.997  0.997  0.997
    eigenvectors:
  0.016  0.651  0.333
  0.405  0.262  0.333
  0.580  0.087  0.333
    occupations:
  0.997  0.000  0.000
  0.000  0.997  0.000
  0.000  0.000  0.997
atom   20   Tr[ns(na)] =   5.98032
    eigenvalues: 
  0.997  0.997  0.997
    eigenvectors:
  0.249  0.418  0.333
  0.096  0.570  0.333
  0.655  0.012  0.333
    occupations:
  0.997  0.000  0.000
  0.000  0.997  0.000
  0.000  0.000  0.997
atom   21   Tr[ns(na)] =   5.98039
    eigenvalues: 
  0.997  0.997  0.997
    eigenvectors:
  0.000  0.174  0.826
  1.000  0.000  0.000
  0.000  0.826  0.174
    occupations:
  0.997  0.000  0.000
  0.000  0.997  0.000
  0.000  0.000  0.997
atom   22   Tr[ns(na)] =   5.98039
    eigenvalues: 
  0.997  0.997  0.997
    eigenvectors:
  1.000  0.000  0.000
  0.000  0.364  0.636
  0.000  0.636  0.364
    occupations:
  0.997  0.000  0.000
  0.000  0.997  0.000
  0.000  0.000  0.997
atom   23   Tr[ns(na)] =   5.98039
    eigenvalues: 
  0.997  0.997  0.997
    eigenvectors:
  0.000  0.218  0.782
  0.000  0.782  0.218
  1.000  0.000  0.000
    occupations:
  0.997  0.000  0.000
  0.000  0.997  0.000
  0.000  0.000  0.997
atom   24   Tr[ns(na)] =   5.98032
    eigenvalues: 
  0.997  0.997  0.997
    eigenvectors:
  0.127  0.539  0.333
  0.663  0.003  0.333
  0.209  0.457  0.333
    occupations:
  0.997  0.000  0.000
  0.000  0.997  0.000
  0.000  0.000  0.997
N of occupied +U levels = 200.8772637
 --- exit write_ns ---

     total cpu time spent up to now is       14.6 secs

     total energy              =   -1655.38229258 Ry
     Harris-Foulkes estimate   =   -1658.64464671 Ry
     estimated scf accuracy    <       7.22891567 Ry

     iteration #  2     ecut=    30.00 Ry     beta=0.30
     Davidson diagonalization with overlap
     ethr =  3.23E-03,  avg # of iterations =  3.0

     total cpu time spent up to now is       26.0 secs

     total energy              =   -1656.99715258 Ry
     Harris-Foulkes estimate   =   -1657.05112308 Ry
     estimated scf accuracy    <       0.20984649 Ry

     iteration #  3     ecut=    30.00 Ry     beta=0.30
     Davidson diagonalization with overlap
     ethr =  9.37E-05,  avg # of iterations =  2.7

     total cpu time spent up to now is       36.3 secs

     total energy              =   -1657.02285231 Ry
     Harris-Foulkes estimate   =   -1657.03138712 Ry
     estimated scf accuracy    <       0.04766043 Ry

     iteration #  4     ecut=    30.00 Ry     beta=0.30
     Davidson diagonalization with overlap
     ethr =  2.13E-05,  avg # of iterations =  2.0

     total cpu time spent up to now is       45.4 secs

     total energy              =   -1657.02418102 Ry
     Harris-Foulkes estimate   =   -1657.02480637 Ry
     estimated scf accuracy    <       0.00516060 Ry

     iteration #  5     ecut=    30.00 Ry     beta=0.30
     Davidson diagonalization with overlap
     ethr =  2.30E-06,  avg # of iterations =  2.3

     total cpu time spent up to now is       54.7 secs

     total energy              =   -1657.02438670 Ry
     Harris-Foulkes estimate   =   -1657.02457798 Ry
     estimated scf accuracy    <       0.00040596 Ry

     iteration #  6     ecut=    30.00 Ry     beta=0.30
     Davidson diagonalization with overlap
     ethr =  1.81E-07,  avg # of iterations =  3.7

     total cpu time spent up to now is       68.0 secs

     total energy              =   -1657.02442674 Ry
     Harris-Foulkes estimate   =   -1657.02477049 Ry
     estimated scf accuracy    <       0.00084456 Ry

     iteration #  7     ecut=    30.00 Ry     beta=0.30
     Davidson diagonalization with overlap
     ethr =  1.81E-07,  avg # of iterations =  3.0

     total cpu time spent up to now is       79.3 secs

     total energy              =   -1657.02459041 Ry
     Harris-Foulkes estimate   =   -1657.02458570 Ry
     estimated scf accuracy    <       0.00000322 Ry

     iteration #  8     ecut=    30.00 Ry     beta=0.30
     Davidson diagonalization with overlap
     ethr =  1.44E-09,  avg # of iterations =  3.3

     total cpu time spent up to now is       91.9 secs

     total energy              =   -1657.02459509 Ry
     Harris-Foulkes estimate   =   -1657.02459241 Ry
     estimated scf accuracy    <       0.00000219 Ry

     iteration #  9     ecut=    30.00 Ry     beta=0.30
     Davidson diagonalization with overlap
     ethr =  9.76E-10,  avg # of iterations =  2.0

     total cpu time spent up to now is      101.1 secs

     total energy              =   -1657.02459677 Ry
     Harris-Foulkes estimate   =   -1657.02459525 Ry
     estimated scf accuracy    <       0.00000032 Ry

     iteration # 10     ecut=    30.00 Ry     beta=0.30
     Davidson diagonalization with overlap
     ethr =  1.42E-10,  avg # of iterations =  3.3

     total cpu time spent up to now is      111.3 secs

     total energy              =   -1657.02459756 Ry
     Harris-Foulkes estimate   =   -1657.02459681 Ry
     estimated scf accuracy    <       0.00000007 Ry

     iteration # 11     ecut=    30.00 Ry     beta=0.30
     Davidson diagonalization with overlap
     ethr =  3.10E-11,  avg # of iterations =  3.0

     total cpu time spent up to now is      123.6 secs

     total energy              =   -1657.02459796 Ry
     Harris-Foulkes estimate   =   -1657.02459759 Ry
     estimated scf accuracy    <       0.00000005 Ry

     iteration # 12     ecut=    30.00 Ry     beta=0.30
     Davidson diagonalization with overlap
     ethr =  2.33E-11,  avg # of iterations =  2.3

     total cpu time spent up to now is      133.3 secs

     End of self-consistent calculation
 --- enter write_ns ---
 LDA+U parameters:
U( 1)     =  0.00000000
alpha( 1) =  0.00000000
U( 2)     =  0.00000000
alpha( 2) =  0.00000000
U( 3)     =  0.00000000
alpha( 3) =  0.00000000
atom    1   Tr[ns(na)] =   9.77619
    eigenvalues: 
  0.903  0.996  0.996  0.997  0.997
    eigenvectors:
  0.000  0.313  0.148  0.334  0.205
  0.333  0.002  0.357  0.265  0.043
  0.333  0.293  0.066  0.006  0.301
  0.000  0.148  0.313  0.205  0.334
  0.333  0.244  0.116  0.190  0.117
    occupations:
  0.996  0.000  0.000  0.000  0.000
  0.000  0.965 -0.031  0.000  0.031
  0.000 -0.031  0.965  0.000  0.031
  0.000  0.000  0.000  0.996  0.000
  0.000  0.031  0.031  0.000  0.965
atom    2   Tr[ns(na)] =   9.77619
    eigenvalues: 
  0.903  0.996  0.996  0.997  0.997
    eigenvectors:
  0.000  0.337  0.124  0.209  0.330
  0.333  0.276  0.083  0.041  0.266
  0.333  0.000  0.359  0.301  0.007
  0.000  0.124  0.337  0.330  0.209
  0.333  0.263  0.097  0.119  0.188
    occupations:
  0.996  0.000  0.000  0.000  0.000
  0.000  0.965  0.031  0.000  0.031
  0.000  0.031  0.965  0.000 -0.031
  0.000  0.000  0.000  0.996  0.000
  0.000  0.031 -0.031  0.000  0.965
atom    3   Tr[ns(na)] =   9.77619
    eigenvalues: 
  0.903  0.996  0.996  0.997  0.997
    eigenvectors:
  0.000  0.403  0.058  0.152  0.387
  0.333  0.009  0.350  0.307  0.000
  0.333  0.216  0.144  0.068  0.240
  0.000  0.058  0.403  0.387  0.152
  0.333  0.314  0.045  0.086  0.221
    occupations:
  0.996  0.000  0.000  0.000  0.000
  0.000  0.965 -0.031  0.000 -0.031
  0.000 -0.031  0.965  0.000 -0.031
  0.000  0.000  0.000  0.996  0.000
  0.000 -0.031 -0.031  0.000  0.965
atom    4   Tr[ns(na)] =   9.77619
    eigenvalues: 
  0.903  0.996  0.996  0.997  0.997
    eigenvectors:
  0.000  0.346  0.115  0.404  0.135
  0.333  0.269  0.090  0.231  0.077
  0.333  0.000  0.359  0.000  0.307
  0.000  0.115  0.346  0.135  0.404
  0.333  0.269  0.090  0.231  0.077
    occupations:
  0.996  0.000  0.000  0.000  0.000
  0.000  0.965  0.031  0.000  0.031
  0.000  0.031  0.965  0.000 -0.031
  0.000  0.000  0.000  0.996  0.000
  0.000  0.031 -0.031  0.000  0.965
atom    5   Tr[ns(na)] =   9.77619
    eigenvalues: 
  0.903  0.996  0.996  0.997  0.997
    eigenvectors:
  0.000  0.346  0.115  0.404  0.135
  0.333  0.000  0.359  0.000  0.307
  0.333  0.269  0.090  0.231  0.077
  0.000  0.115  0.346  0.135  0.404
  0.333  0.269  0.090  0.231  0.077
    occupations:
  0.996  0.000  0.000  0.000  0.000
  0.000  0.965  0.031  0.000  0.031
  0.000  0.031  0.965  0.000 -0.031
  0.000  0.000  0.000  0.996  0.000
  0.000  0.031 -0.031  0.000  0.965
atom    6   Tr[ns(na)] =   9.77619
    eigenvalues: 
  0.903  0.996  0.996  0.997  0.997
    eigenvectors:
  0.000  0.346  0.115  0.404  0.135
  0.333  0.000  0.359  0.000  0.307
  0.333  0.269  0.090  0.231  0.077
  0.000  0.115  0.346  0.135  0.404
  0.333  0.269  0.090  0.231  0.077
    occupations:
  0.996  0.000  0.000  0.000  0.000
  0.000  0.965 -0.031  0.000 -0.031
  0.000 -0.031  0.965  0.000 -0.031
  0.000  0.000  0.000  0.996  0.000
  0.000 -0.031 -0.031  0.000  0.965
atom    7   Tr[ns(na)] =   9.77619
    eigenvalues: 
  0.903  0.996  0.996  0.997  0.997
    eigenvectors:
  0.000  0.346  0.115  0.404  0.135
  0.333  0.269  0.090  0.231  0.077
  0.333  0.000  0.359  0.000  0.307
  0.000  0.115  0.346  0.135  0.404
  0.333  0.269  0.090  0.231  0.077
    occupations:
  0.996  0.000  0.000  0.000  0.000
  0.000  0.965 -0.031  0.000  0.031
  0.000 -0.031  0.965  0.000  0.031
  0.000  0.000  0.000  0.996  0.000
  0.000  0.031  0.031  0.000  0.965
atom    8   Tr[ns(na)] =   9.77619
    eigenvalues: 
  0.903  0.996  0.996  0.997  0.997
    eigenvectors:
  0.000  0.000  0.461  0.000  0.539
  0.333  0.269  0.090  0.231  0.077
  0.333  0.269  0.090  0.231  0.077
  0.000  0.461  0.000  0.539  0.000
  0.333  0.000  0.359  0.000  0.307
    occupations:
  0.996  0.000  0.000  0.000  0.000
  0.000  0.965  0.031  0.000 -0.031
  0.000  0.031  0.965  0.000  0.031
  0.000  0.000  0.000  0.996  0.000
  0.000 -0.031  0.031  0.000  0.965
atom    9   Tr[ns(na)] =   9.77619
    eigenvalues: 
  0.903  0.996  0.996  0.997  0.997
    eigenvectors:
  0.000  0.024  0.438  0.538  0.001
  0.333  0.329  0.030  0.087  0.221
  0.333  0.192  0.168  0.067  0.240
  0.000  0.438  0.024  0.001  0.538
  0.333  0.018  0.341  0.307  0.000
    occupations:
  0.996  0.000  0.000  0.000  0.000
  0.000  0.965  0.031  0.000 -0.031
  0.000  0.031  0.965  0.000  0.031
  0.000  0.000  0.000  0.996  0.000
  0.000 -0.031  0.031  0.000  0.965
atom   10   Tr[ns(na)] =   9.77619
    eigenvalues: 
  0.903  0.996  0.996  0.997  0.997
    eigenvectors:
  0.000  0.346  0.115  0.404  0.135
  0.333  0.269  0.090  0.231  0.077
  0.333  0.000  0.359  0.000  0.307
  0.000  0.115  0.346  0.135  0.404
  0.333  0.269  0.090  0.231  0.077
    occupations:
  0.996  0.000  0.000  0.000  0.000
  0.000  0.965  0.031  0.000 -0.031
  0.000  0.031  0.965  0.000  0.031
  0.000  0.000  0.000  0.996  0.000
  0.000 -0.031  0.031  0.000  0.965
atom   11   Tr[ns(na)] =   9.77619
    eigenvalues: 
  0.903  0.996  0.996  0.997  0.997
    eigenvectors:
  0.000  0.346  0.115  0.404  0.135
  0.333  0.000  0.359  0.000  0.307
  0.333  0.269  0.090  0.231  0.077
  0.000  0.115  0.346  0.135  0.404
  0.333  0.269  0.090  0.231  0.077
    occupations:
  0.996  0.000  0.000  0.000  0.000
  0.000  0.965  0.031  0.000 -0.031
  0.000  0.031  0.965  0.000  0.031
  0.000  0.000  0.000  0.996  0.000
  0.000 -0.031  0.031  0.000  0.965
atom   12   Tr[ns(na)] =   9.77619
    eigenvalues: 
  0.903  0.996  0.996  0.997  0.997
    eigenvectors:
  0.000  0.346  0.115  0.404  0.135
  0.333  0.000  0.359  0.000  0.307
  0.333  0.269  0.090  0.231  0.077
  0.000  0.115  0.346  0.135  0.404
  0.333  0.269  0.090  0.231  0.077
    occupations:
  0.996  0.000  0.000  0.000  0.000
  0.000  0.965 -0.031  0.000  0.031
  0.000 -0.031  0.965  0.000  0.031
  0.000  0.000  0.000  0.996  0.000
  0.000  0.031  0.031  0.000  0.965
atom   13   Tr[ns(na)] =   9.77619
    eigenvalues: 
  0.903  0.996  0.996  0.997  0.997
    eigenvectors:
  0.000  0.346  0.115  0.404  0.135
  0.333  0.269  0.090  0.231  0.077
  0.333  0.000  0.359  0.000  0.307
  0.000  0.115  0.346  0.135  0.404
  0.333  0.269  0.090  0.231  0.077
    occupations:
  0.996  0.000  0.000  0.000  0.000
  0.000  0.965 -0.031  0.000 -0.031
  0.000 -0.031  0.965  0.000 -0.031
  0.000  0.000  0.000  0.996  0.000
  0.000 -0.031 -0.031  0.000  0.965
atom   14   Tr[ns(na)] =   9.77619
    eigenvalues: 
  0.903  0.996  0.996  0.997  0.997
    eigenvectors:
  0.000  0.000  0.461  0.000  0.539
  0.333  0.269  0.090  0.231  0.077
  0.333  0.269  0.090  0.231  0.077
  0.000  0.461  0.000  0.539  0.000
  0.333  0.000  0.359  0.000  0.307
    occupations:
  0.996  0.000  0.000  0.000  0.000
  0.000  0.965 -0.031  0.000  0.031
  0.000 -0.031  0.965  0.000  0.031
  0.000  0.000  0.000  0.996  0.000
  0.000  0.031  0.031  0.000  0.965
atom   15   Tr[ns(na)] =   9.77619
    eigenvalues: 
  0.903  0.996  0.996  0.997  0.997
    eigenvectors:
  0.000  0.000  0.461  0.000  0.539
  0.333  0.269  0.090  0.231  0.077
  0.333  0.269  0.090  0.231  0.077
  0.000  0.461  0.000  0.539  0.000
  0.333  0.000  0.359  0.000  0.307
    occupations:
  0.996  0.000  0.000  0.000  0.000
  0.000  0.965 -0.031  0.000 -0.031
  0.000 -0.031  0.965  0.000 -0.031
  0.000  0.000  0.000  0.996  0.000
  0.000 -0.031 -0.031  0.000  0.965
atom   16   Tr[ns(na)] =   9.77619
    eigenvalues: 
  0.903  0.996  0.996  0.997  0.997
    eigenvectors:
  0.000  0.000  0.461  0.000  0.539
  0.333  0.269  0.090  0.231  0.077
  0.333  0.269  0.090  0.231  0.077
  0.000  0.461  0.000  0.539  0.000
  0.333  0.000  0.359  0.000  0.307
    occupations:
  0.996  0.000  0.000  0.000  0.000
  0.000  0.965  0.031  0.000  0.031
  0.000  0.031  0.965  0.000 -0.031
  0.000  0.000  0.000  0.996  0.000
  0.000  0.031 -0.031  0.000  0.965
atom   17   Tr[ns(na)] =   5.74458
    eigenvalues: 
  0.957  0.957  0.957
    eigenvectors:
  0.050  0.413  0.537
  0.475  0.183  0.342
  0.475  0.404  0.121
    occupations:
  0.957  0.000  0.000
  0.000  0.957  0.000
  0.000  0.000  0.957
atom   18   Tr[ns(na)] =   5.74458
    eigenvalues: 
  0.957  0.957  0.957
    eigenvectors:
  0.434  0.233  0.333
  0.559  0.108  0.333
  0.008  0.659  0.333
    occupations:
  0.957  0.000  0.000
  0.000  0.957  0.000
  0.000  0.000  0.957
atom   19   Tr[ns(na)] =   5.74458
    eigenvalues: 
  0.957  0.957  0.957
    eigenvectors:
  0.012  0.655  0.333
  0.418  0.248  0.333
  0.570  0.097  0.333
    occupations:
  0.957  0.000  0.000
  0.000  0.957  0.000
  0.000  0.000  0.957
atom   20   Tr[ns(na)] =   5.74458
    eigenvalues: 
  0.957  0.957  0.957
    eigenvectors:
  0.312  0.354  0.333
  0.056  0.611  0.333
  0.632  0.035  0.333
    occupations:
  0.957  0.000  0.000
  0.000  0.957  0.000
  0.000  0.000  0.957
atom   21   Tr[ns(na)] =   5.74458
    eigenvalues: 
  0.957  0.957  0.957
    eigenvectors:
  0.201  0.799  0.000
  0.000  0.000  1.000
  0.799  0.201  0.000
    occupations:
  0.957  0.000  0.000
  0.000  0.957  0.000
  0.000  0.000  0.957
atom   22   Tr[ns(na)] =   5.74458
    eigenvalues: 
  0.957  0.957  0.957
    eigenvectors:
  0.000  0.000  1.000
  0.364  0.636  0.000
  0.636  0.364  0.000
    occupations:
  0.957  0.000  0.000
  0.000  0.957  0.000
  0.000  0.000  0.957
atom   23   Tr[ns(na)] =   5.74458
    eigenvalues: 
  0.957  0.957  0.957
    eigenvectors:
  0.199  0.801  0.000
  0.801  0.199  0.000
  0.000  0.000  1.000
    occupations:
  0.957  0.000  0.000
  0.000  0.957  0.000
  0.000  0.000  0.957
atom   24   Tr[ns(na)] =   5.74458
    eigenvalues: 
  0.957  0.957  0.957
    eigenvectors:
  0.170  0.496  0.333
  0.667  0.000  0.333
  0.163  0.504  0.333
    occupations:
  0.957  0.000  0.000
  0.000  0.957  0.000
  0.000  0.000  0.957
N of occupied +U levels = 202.3757139
 --- exit write_ns ---

          k = 0.0000 0.0000 0.0000 (  6099 PWs)   bands (ev):

   -11.0922 -10.7485 -10.7485 -10.7485 -10.7485 -10.7485 -10.7485 -10.4509
     1.6678   1.6678   1.6678   1.6678   1.6678   1.6678   1.7601   1.7601
     1.7601   2.7412   2.7412   2.7412   2.7412   2.7412   2.7412   3.3485
     3.3485   3.3485   3.3485   3.3485   3.3485   3.9956   4.0891   4.0891
     4.0891   5.6250   5.6250   5.6739   5.6739   5.6739   5.6739   5.6739
     5.6739   5.7458   5.7458   5.7458   5.8835   5.8835   5.8835   5.8835
     5.8835   5.8835   6.2974   6.2974   6.2974   6.2974   6.2974   6.2974
     6.3053   6.3053   6.3053   6.3053   6.3053   6.3053   6.3716   6.3716
     6.3716   6.3716   6.3716   6.3716   6.5158   6.5158   6.6192   6.6192
     6.6192   6.6192   6.6192   6.6192   6.6315   6.6315   6.6315   6.6747
     6.6747   6.6747   6.6818   6.6818   6.6818   6.6818   6.6818   6.6818
     6.9907   6.9907   6.9907   6.9907   6.9907   6.9907   6.9954   6.9954
     6.9954   7.2264   7.2264   7.2264   7.2264   7.2264   7.2264   7.8161
     7.8161   7.8161   7.8161   7.8161   7.8161   8.4051   8.4051   8.4051

          k = 0.0000 0.2500-0.2500 (  6164 PWs)   bands (ev):

   -10.9246 -10.9246 -10.8515 -10.8515 -10.6446 -10.6446 -10.6029 -10.6029
     1.7236   1.7236   1.7831   1.7831   2.0203   2.0203   2.0779   2.0779
     2.0934   2.0934   2.4235   2.4235   2.6812   2.6812   3.1234   3.1234
     3.1752   3.1752   3.2629   3.2629   3.3338   3.3338   3.6514   3.6514
     4.8281   4.8282   5.4177   5.4177   5.5579   5.5579   5.7612   5.7612
     5.7842   5.7842   5.8236   5.8236   6.0314   6.0314   6.0550   6.0550
     6.1026   6.1026   6.1423   6.1423   6.2592   6.2592   6.2811   6.2811
     6.3370   6.3370   6.3658   6.3658   6.4205   6.4205   6.4220   6.4220
     6.4395   6.4395   6.4455   6.4455   6.4628   6.4628   6.5239   6.5239
     6.5402   6.5402   6.6116   6.6116   6.7154   6.7154   6.7164   6.7164
     6.7571   6.7571   6.7705   6.7705   6.7887   6.7887   6.8105   6.8105
     6.8110   6.8110   6.8242   6.8242   6.9235   6.9235   6.9559   6.9559
     6.9881   6.9881   7.2192   7.2192   7.2681   7.2681   7.3801   7.3801
     7.7343   7.7343   7.8913   7.8913   7.8979   7.8979   8.1546   8.1546

          k = 0.0000 0.0000-0.5000 (  6098 PWs)   bands (ev):

   -10.9360 -10.7673 -10.7673 -10.7673 -10.7673 -10.7673 -10.7673 -10.5191
     1.8559   1.8559   1.8559   2.3419   2.3419   2.3419   2.3419   2.3419
     2.3419   2.3992   2.3992   2.3992   2.3992   2.3992   2.3992   3.0134
     3.0134   3.0134   3.0134   3.0134   3.0134   3.2573   3.2573   3.2573
     5.3202   5.3202   5.3202   5.3202   5.3202   5.3202   5.4639   5.4639
     5.4639   6.0033   6.0033   6.0384   6.0384   6.0384   6.0384   6.0384
     6.0384   6.2530   6.2530   6.2530   6.2530   6.2530   6.2530   6.3201
     6.3201   6.3201   6.4552   6.4552   6.4552   6.4552   6.4552   6.4552
     6.4682   6.4682   6.4682   6.4682   6.4682   6.4682   6.4871   6.4871
     6.4871   6.4871   6.4871   6.4871   6.5707   6.5707   6.5707   6.6545
     6.6545   6.6545   6.6545   6.6545   6.6545   6.7033   6.7033   6.7033
     6.8651   6.8651   6.8651   6.8651   6.8651   6.8651   6.9510   6.9510
     7.2414   7.2414   7.2414   7.2414   7.2414   7.2414   7.4037   7.8999
     7.8999   7.8999   8.0565   8.0565   8.0565   8.0565   8.0565   8.0565

!    total energy              =   -1657.02459833 Ry
     Harris-Foulkes estimate   =   -1657.02459796 Ry
     estimated scf accuracy    <          1.6E-09 Ry

     The total energy is the sum of the following terms:

     one-electron contribution =    -562.95277799 Ry
     hartree contribution      =     504.00821641 Ry
     xc contribution           =    -286.11455645 Ry
     ewald contribution        =   -1311.96548030 Ry
     Hubbard energy            =       0.00000000 Ry

     convergence has been achieved in  12 iterations

     Writing output data file cu2o.save
 
     init_run     :      4.76s CPU      5.13s WALL (       1 calls)
     electrons    :    121.68s CPU    128.08s WALL (       1 calls)

     Called by init_run:
     wfcinit      :      2.56s CPU      2.68s WALL (       1 calls)
     potinit      :      0.30s CPU      0.39s WALL (       1 calls)

     Called by electrons:
     c_bands      :     77.26s CPU     80.48s WALL (      12 calls)
     sum_band     :     25.46s CPU     26.50s WALL (      12 calls)
     v_of_rho     :      2.72s CPU      3.25s WALL (      13 calls)
     newd         :     16.53s CPU     18.03s WALL (      13 calls)
     mix_rho      :      0.46s CPU      0.51s WALL (      12 calls)

     Called by c_bands:
     init_us_2    :      0.67s CPU      0.67s WALL (      78 calls)
     cegterg      :     75.92s CPU     78.63s WALL (      36 calls)

     Called by *egterg:
     h_psi        :     48.65s CPU     48.97s WALL (     137 calls)
     s_psi        :      4.92s CPU      4.92s WALL (     140 calls)
     g_psi        :      0.22s CPU      0.22s WALL (      98 calls)
     cdiaghg      :      9.80s CPU      9.84s WALL (     134 calls)

     Called by h_psi:
     add_vuspsi   :      4.99s CPU      4.97s WALL (     137 calls)

     General routines
     calbec       :      8.92s CPU      8.97s WALL (     349 calls)
     fft          :      2.46s CPU      2.98s WALL (     203 calls)
     ffts         :      0.07s CPU      0.06s WALL (      25 calls)
     fftw         :     28.63s CPU     28.36s WALL (   26008 calls)
     interpolate  :      0.40s CPU      0.55s WALL (      25 calls)
     davcio       :      0.00s CPU      1.11s WALL (     228 calls)
 
     Parallel routines
     fft_scatter  :      9.36s CPU      9.38s WALL (   26236 calls)
     EXX routines
 
     PWSCF        :  2m 6.65s CPU     2m13.51s WALL

 
   This run was terminated on:  21:41:21  17Jun2012            

=------------------------------------------------------------------------------=
   JOB DONE.
=------------------------------------------------------------------------------=
