
     Program PWSCF v.5.0        starts on 17Jun2012 at 21:33:51 

     This program is part of the open-source Quantum ESPRESSO suite
     for quantum simulation of materials; please cite
         "P. Giannozzi et al., J. Phys.:Condens. Matter 21 395502 (2009);
          URL http://www.quantum-espresso.org", 
     in publications or presentations arising from this work. More details at
     http://www.quantum-espresso.org/quote.php

     Parallel version (MPI), running on     4 processors
     R & G space division:  proc/pool =    4

     Current dimensions of program PWSCF are:
     Max number of different atomic species (ntypx) = 10
     Max number of k-points (npk) =  40000
     Max angular momentum in pseudopotentials (lmaxx) =  3
     Waiting for input...
     Reading input from standard input
               file O.pbe-rrkjus.UPF: wavefunction(s)  2S renormalized

     Subspace diagonalization in iterative solution of the eigenvalue problem:
     a serial algorithm will be used

 
     Parallelization info
     --------------------
     sticks:   dense  smooth     PW     G-vecs:    dense   smooth      PW
     Min        1137     455    131                48485    12292    1908
     Max        1138     456    132                48486    12300    1909
     Sum        4549    1821    527               193941    49181    7635
 


     bravais-lattice index     =            0
     lattice parameter (alat)  =       8.2100  a.u.
     unit-cell volume          =    2213.5506 (a.u.)^3
     number of atoms/cell      =           24
     number of atomic types    =            3
     number of electrons       =       224.00
     number of Kohn-Sham states=          112
     kinetic-energy cutoff     =      30.0000  Ry
     charge density cutoff     =     300.0000  Ry
     convergence threshold     =      1.0E-08
     mixing beta               =       0.3000
     number of iterations used =            8  plain     mixing
     Exchange-correlation      =  SLA  PW   PBE  PBE ( 1 4 3 4 0)
     EXX-fraction              =        0.00

     celldm(1)=   8.210000  celldm(2)=   0.000000  celldm(3)=   0.000000
     celldm(4)=   0.000000  celldm(5)=   0.000000  celldm(6)=   0.000000

     crystal axes: (cart. coord. in units of alat)
               a(1) = (   1.000000   1.000000   1.000000 )  
               a(2) = (  -1.000000   1.000000   1.000000 )  
               a(3) = (  -1.000000  -1.000000   1.000000 )  

     reciprocal axes: (cart. coord. in units 2 pi/alat)
               b(1) = (  0.500000  0.000000  0.500000 )  
               b(2) = ( -0.500000  0.500000  0.000000 )  
               b(3) = (  0.000000 -0.500000  0.500000 )  


     PseudoPot. # 1 for Cu read from file:
     ../pseudo/Cu.pbe-d-rrkjus.UPF
     MD5 check sum: 855c9c66b119533e70b4be5d3ca221fe
     Pseudo is Ultrasoft, Zval = 11.0
     Generated by new atomic code, or converted to UPF format
     Using radial grid of  899 points,  3 beta functions with: 
                l(1) =   2
                l(2) =   2
                l(3) =   1
     Q(r) pseudized with 0 coefficients 


     PseudoPot. # 2 for Cu read from file:
     ../pseudo/Cu.pbe-d-rrkjus.UPF
     MD5 check sum: 855c9c66b119533e70b4be5d3ca221fe
     Pseudo is Ultrasoft, Zval = 11.0
     Generated by new atomic code, or converted to UPF format
     Using radial grid of  899 points,  3 beta functions with: 
                l(1) =   2
                l(2) =   2
                l(3) =   1
     Q(r) pseudized with 0 coefficients 


     PseudoPot. # 3 for O  read from file:
     ../pseudo/O.pbe-rrkjus.UPF
     MD5 check sum: 390ba29e75625707450f3bd3f0eb6be9
     Pseudo is Ultrasoft, Zval =  6.0
     Generated by new atomic code, or converted to UPF format
     Using radial grid of 1269 points,  4 beta functions with: 
                l(1) =   0
                l(2) =   0
                l(3) =   1
                l(4) =   1
     Q(r) pseudized with 0 coefficients 


     atomic species   valence    mass     pseudopotential
        Cu1           11.00     1.00000     Cu( 1.00)
        Cu            11.00     1.00000     Cu( 1.00)
        O              6.00     1.00000     O ( 1.00)
 -----
     simplified LDA+U calculation, Hubbard_lmax = 2
     atomic species  L   Hubbard U  Hubbard alpha
        Cu1          2    0.000000    0.000000
        Cu           2    0.000000    0.000000
        O            1    0.000000    0.000000
 -----

     12 Sym. Ops., with inversion, found



   Cartesian axes

     site n.     atom                  positions (alat units)
         1           Cu1 tau(   1) = (   0.0000000   0.0000000   0.0000000  )
         2           Cu  tau(   2) = (  -1.0000000   0.5000000   0.5000000  )
         3           Cu  tau(   3) = (  -0.5000000  -0.5000000   0.0000000  )
         4           Cu  tau(   4) = (   0.0000000   0.5000000   0.5000000  )
         5           Cu  tau(   5) = (  -1.0000000  -0.5000000   0.5000000  )
         6           Cu  tau(   6) = (  -1.5000000  -0.5000000   1.0000000  )
         7           Cu  tau(   7) = (   0.0000000   1.0000000   1.0000000  )
         8           Cu  tau(   8) = (  -0.5000000   0.0000000   0.5000000  )
         9           Cu  tau(   9) = (  -0.5000000   0.0000000   1.5000000  )
        10           Cu  tau(  10) = (  -1.5000000   0.0000000   1.5000000  )
        11           Cu  tau(  11) = (  -0.5000000   1.0000000   1.5000000  )
        12           Cu  tau(  12) = (  -1.0000000   0.0000000   1.0000000  )
        13           Cu  tau(  13) = (  -0.5000000   0.5000000   1.0000000  )
        14           Cu  tau(  14) = (   0.0000000   0.0000000   1.0000000  )
        15           Cu  tau(  15) = (  -0.5000000  -0.5000000   1.0000000  )
        16           Cu  tau(  16) = (  -1.0000000   0.5000000   1.5000000  )
        17           O   tau(  17) = (  -0.2500000  -0.2500000  -0.2500000  )
        18           O   tau(  18) = (   0.2500000   0.2500000   0.2500000  )
        19           O   tau(  19) = (  -0.7500000   0.2500000   0.2500000  )
        20           O   tau(  20) = (  -0.7500000  -0.7500000   0.2500000  )
        21           O   tau(  21) = (  -0.2500000   0.7500000   0.7500000  )
        22           O   tau(  22) = (  -0.2500000  -0.2500000   0.7500000  )
        23           O   tau(  23) = (  -1.2500000  -0.2500000   0.7500000  )
        24           O   tau(  24) = (  -0.7500000   0.2500000   1.2500000  )

     number of k points=     4
                       cart. coord. in units 2pi/alat
        k(    1) = (   0.0000000   0.0000000   0.0000000), wk =   0.2500000
        k(    2) = (   0.0000000   0.2500000  -0.2500000), wk =   0.7500000
        k(    3) = (   0.0000000   0.0000000  -0.5000000), wk =   0.2500000
        k(    4) = (   0.0000000  -0.2500000  -0.2500000), wk =   0.7500000

     Dense  grid:   193941 G-vectors     FFT dimensions: (  80,  80,  80)

     Smooth grid:    49181 G-vectors     FFT dimensions: (  50,  50,  50)

     Largest allocated arrays     est. size (Mb)     dimensions
        Kohn-Sham Wavefunctions         2.63 Mb     (   1538,  112)
        Atomic wavefunctions            3.00 Mb     (   1538,  128)
        NL pseudopotentials             6.38 Mb     (   1538,  272)
        Each V/rho on FFT grid          1.95 Mb     ( 128000)
        Each G-vector array             0.37 Mb     (  48486)
        G-vector shells                 0.01 Mb     (    939)
     Largest temporary arrays     est. size (Mb)     dimensions
        Auxiliary wavefunctions        10.51 Mb     (   1538,  448)
        Each subspace H/S matrix        3.06 Mb     ( 448, 448)
        Each <psi_i|beta_j> matrix      0.46 Mb     (    272,  112)
        Arrays for rho mixing          15.62 Mb     ( 128000,   8)

     Initial potential from superposition of free atoms

     starting charge  223.99297, renormalised to  224.00000
     Number of +U iterations with fixed ns =  0
     Starting occupations:
 --- enter write_ns ---
 LDA+U parameters:
U( 1)     =  0.00000000
alpha( 1) =  0.00000000
U( 2)     =  0.00000000
alpha( 2) =  0.00000000
U( 3)     =  0.00000000
alpha( 3) =  0.00000000
atom    1   Tr[ns(na)] =  10.00000
    eigenvalues: 
  1.000  1.000  1.000  1.000  1.000
    eigenvectors:
  1.000  0.000  0.000  0.000  0.000
  0.000  1.000  0.000  0.000  0.000
  0.000  0.000  1.000  0.000  0.000
  0.000  0.000  0.000  1.000  0.000
  0.000  0.000  0.000  0.000  1.000
    occupations:
  1.000  0.000  0.000  0.000  0.000
  0.000  1.000  0.000  0.000  0.000
  0.000  0.000  1.000  0.000  0.000
  0.000  0.000  0.000  1.000  0.000
  0.000  0.000  0.000  0.000  1.000
atom    2   Tr[ns(na)] =  10.00000
    eigenvalues: 
  1.000  1.000  1.000  1.000  1.000
    eigenvectors:
  1.000  0.000  0.000  0.000  0.000
  0.000  1.000  0.000  0.000  0.000
  0.000  0.000  1.000  0.000  0.000
  0.000  0.000  0.000  1.000  0.000
  0.000  0.000  0.000  0.000  1.000
    occupations:
  1.000  0.000  0.000  0.000  0.000
  0.000  1.000  0.000  0.000  0.000
  0.000  0.000  1.000  0.000  0.000
  0.000  0.000  0.000  1.000  0.000
  0.000  0.000  0.000  0.000  1.000
atom    3   Tr[ns(na)] =  10.00000
    eigenvalues: 
  1.000  1.000  1.000  1.000  1.000
    eigenvectors:
  1.000  0.000  0.000  0.000  0.000
  0.000  1.000  0.000  0.000  0.000
  0.000  0.000  1.000  0.000  0.000
  0.000  0.000  0.000  1.000  0.000
  0.000  0.000  0.000  0.000  1.000
    occupations:
  1.000  0.000  0.000  0.000  0.000
  0.000  1.000  0.000  0.000  0.000
  0.000  0.000  1.000  0.000  0.000
  0.000  0.000  0.000  1.000  0.000
  0.000  0.000  0.000  0.000  1.000
atom    4   Tr[ns(na)] =  10.00000
    eigenvalues: 
  1.000  1.000  1.000  1.000  1.000
    eigenvectors:
  1.000  0.000  0.000  0.000  0.000
  0.000  1.000  0.000  0.000  0.000
  0.000  0.000  1.000  0.000  0.000
  0.000  0.000  0.000  1.000  0.000
  0.000  0.000  0.000  0.000  1.000
    occupations:
  1.000  0.000  0.000  0.000  0.000
  0.000  1.000  0.000  0.000  0.000
  0.000  0.000  1.000  0.000  0.000
  0.000  0.000  0.000  1.000  0.000
  0.000  0.000  0.000  0.000  1.000
atom    5   Tr[ns(na)] =  10.00000
    eigenvalues: 
  1.000  1.000  1.000  1.000  1.000
    eigenvectors:
  1.000  0.000  0.000  0.000  0.000
  0.000  1.000  0.000  0.000  0.000
  0.000  0.000  1.000  0.000  0.000
  0.000  0.000  0.000  1.000  0.000
  0.000  0.000  0.000  0.000  1.000
    occupations:
  1.000  0.000  0.000  0.000  0.000
  0.000  1.000  0.000  0.000  0.000
  0.000  0.000  1.000  0.000  0.000
  0.000  0.000  0.000  1.000  0.000
  0.000  0.000  0.000  0.000  1.000
atom    6   Tr[ns(na)] =  10.00000
    eigenvalues: 
  1.000  1.000  1.000  1.000  1.000
    eigenvectors:
  1.000  0.000  0.000  0.000  0.000
  0.000  1.000  0.000  0.000  0.000
  0.000  0.000  1.000  0.000  0.000
  0.000  0.000  0.000  1.000  0.000
  0.000  0.000  0.000  0.000  1.000
    occupations:
  1.000  0.000  0.000  0.000  0.000
  0.000  1.000  0.000  0.000  0.000
  0.000  0.000  1.000  0.000  0.000
  0.000  0.000  0.000  1.000  0.000
  0.000  0.000  0.000  0.000  1.000
atom    7   Tr[ns(na)] =  10.00000
    eigenvalues: 
  1.000  1.000  1.000  1.000  1.000
    eigenvectors:
  1.000  0.000  0.000  0.000  0.000
  0.000  1.000  0.000  0.000  0.000
  0.000  0.000  1.000  0.000  0.000
  0.000  0.000  0.000  1.000  0.000
  0.000  0.000  0.000  0.000  1.000
    occupations:
  1.000  0.000  0.000  0.000  0.000
  0.000  1.000  0.000  0.000  0.000
  0.000  0.000  1.000  0.000  0.000
  0.000  0.000  0.000  1.000  0.000
  0.000  0.000  0.000  0.000  1.000
atom    8   Tr[ns(na)] =  10.00000
    eigenvalues: 
  1.000  1.000  1.000  1.000  1.000
    eigenvectors:
  1.000  0.000  0.000  0.000  0.000
  0.000  1.000  0.000  0.000  0.000
  0.000  0.000  1.000  0.000  0.000
  0.000  0.000  0.000  1.000  0.000
  0.000  0.000  0.000  0.000  1.000
    occupations:
  1.000  0.000  0.000  0.000  0.000
  0.000  1.000  0.000  0.000  0.000
  0.000  0.000  1.000  0.000  0.000
  0.000  0.000  0.000  1.000  0.000
  0.000  0.000  0.000  0.000  1.000
atom    9   Tr[ns(na)] =  10.00000
    eigenvalues: 
  1.000  1.000  1.000  1.000  1.000
    eigenvectors:
  1.000  0.000  0.000  0.000  0.000
  0.000  1.000  0.000  0.000  0.000
  0.000  0.000  1.000  0.000  0.000
  0.000  0.000  0.000  1.000  0.000
  0.000  0.000  0.000  0.000  1.000
    occupations:
  1.000  0.000  0.000  0.000  0.000
  0.000  1.000  0.000  0.000  0.000
  0.000  0.000  1.000  0.000  0.000
  0.000  0.000  0.000  1.000  0.000
  0.000  0.000  0.000  0.000  1.000
atom   10   Tr[ns(na)] =  10.00000
    eigenvalues: 
  1.000  1.000  1.000  1.000  1.000
    eigenvectors:
  1.000  0.000  0.000  0.000  0.000
  0.000  1.000  0.000  0.000  0.000
  0.000  0.000  1.000  0.000  0.000
  0.000  0.000  0.000  1.000  0.000
  0.000  0.000  0.000  0.000  1.000
    occupations:
  1.000  0.000  0.000  0.000  0.000
  0.000  1.000  0.000  0.000  0.000
  0.000  0.000  1.000  0.000  0.000
  0.000  0.000  0.000  1.000  0.000
  0.000  0.000  0.000  0.000  1.000
atom   11   Tr[ns(na)] =  10.00000
    eigenvalues: 
  1.000  1.000  1.000  1.000  1.000
    eigenvectors:
  1.000  0.000  0.000  0.000  0.000
  0.000  1.000  0.000  0.000  0.000
  0.000  0.000  1.000  0.000  0.000
  0.000  0.000  0.000  1.000  0.000
  0.000  0.000  0.000  0.000  1.000
    occupations:
  1.000  0.000  0.000  0.000  0.000
  0.000  1.000  0.000  0.000  0.000
  0.000  0.000  1.000  0.000  0.000
  0.000  0.000  0.000  1.000  0.000
  0.000  0.000  0.000  0.000  1.000
atom   12   Tr[ns(na)] =  10.00000
    eigenvalues: 
  1.000  1.000  1.000  1.000  1.000
    eigenvectors:
  1.000  0.000  0.000  0.000  0.000
  0.000  1.000  0.000  0.000  0.000
  0.000  0.000  1.000  0.000  0.000
  0.000  0.000  0.000  1.000  0.000
  0.000  0.000  0.000  0.000  1.000
    occupations:
  1.000  0.000  0.000  0.000  0.000
  0.000  1.000  0.000  0.000  0.000
  0.000  0.000  1.000  0.000  0.000
  0.000  0.000  0.000  1.000  0.000
  0.000  0.000  0.000  0.000  1.000
atom   13   Tr[ns(na)] =  10.00000
    eigenvalues: 
  1.000  1.000  1.000  1.000  1.000
    eigenvectors:
  1.000  0.000  0.000  0.000  0.000
  0.000  1.000  0.000  0.000  0.000
  0.000  0.000  1.000  0.000  0.000
  0.000  0.000  0.000  1.000  0.000
  0.000  0.000  0.000  0.000  1.000
    occupations:
  1.000  0.000  0.000  0.000  0.000
  0.000  1.000  0.000  0.000  0.000
  0.000  0.000  1.000  0.000  0.000
  0.000  0.000  0.000  1.000  0.000
  0.000  0.000  0.000  0.000  1.000
atom   14   Tr[ns(na)] =  10.00000
    eigenvalues: 
  1.000  1.000  1.000  1.000  1.000
    eigenvectors:
  1.000  0.000  0.000  0.000  0.000
  0.000  1.000  0.000  0.000  0.000
  0.000  0.000  1.000  0.000  0.000
  0.000  0.000  0.000  1.000  0.000
  0.000  0.000  0.000  0.000  1.000
    occupations:
  1.000  0.000  0.000  0.000  0.000
  0.000  1.000  0.000  0.000  0.000
  0.000  0.000  1.000  0.000  0.000
  0.000  0.000  0.000  1.000  0.000
  0.000  0.000  0.000  0.000  1.000
atom   15   Tr[ns(na)] =  10.00000
    eigenvalues: 
  1.000  1.000  1.000  1.000  1.000
    eigenvectors:
  1.000  0.000  0.000  0.000  0.000
  0.000  1.000  0.000  0.000  0.000
  0.000  0.000  1.000  0.000  0.000
  0.000  0.000  0.000  1.000  0.000
  0.000  0.000  0.000  0.000  1.000
    occupations:
  1.000  0.000  0.000  0.000  0.000
  0.000  1.000  0.000  0.000  0.000
  0.000  0.000  1.000  0.000  0.000
  0.000  0.000  0.000  1.000  0.000
  0.000  0.000  0.000  0.000  1.000
atom   16   Tr[ns(na)] =  10.00000
    eigenvalues: 
  1.000  1.000  1.000  1.000  1.000
    eigenvectors:
  1.000  0.000  0.000  0.000  0.000
  0.000  1.000  0.000  0.000  0.000
  0.000  0.000  1.000  0.000  0.000
  0.000  0.000  0.000  1.000  0.000
  0.000  0.000  0.000  0.000  1.000
    occupations:
  1.000  0.000  0.000  0.000  0.000
  0.000  1.000  0.000  0.000  0.000
  0.000  0.000  1.000  0.000  0.000
  0.000  0.000  0.000  1.000  0.000
  0.000  0.000  0.000  0.000  1.000
atom   17   Tr[ns(na)] =   4.00000
    eigenvalues: 
  0.667  0.667  0.667
    eigenvectors:
  1.000  0.000  0.000
  0.000  1.000  0.000
  0.000  0.000  1.000
    occupations:
  0.667  0.000  0.000
  0.000  0.667  0.000
  0.000  0.000  0.667
atom   18   Tr[ns(na)] =   4.00000
    eigenvalues: 
  0.667  0.667  0.667
    eigenvectors:
  1.000  0.000  0.000
  0.000  1.000  0.000
  0.000  0.000  1.000
    occupations:
  0.667  0.000  0.000
  0.000  0.667  0.000
  0.000  0.000  0.667
atom   19   Tr[ns(na)] =   4.00000
    eigenvalues: 
  0.667  0.667  0.667
    eigenvectors:
  1.000  0.000  0.000
  0.000  1.000  0.000
  0.000  0.000  1.000
    occupations:
  0.667  0.000  0.000
  0.000  0.667  0.000
  0.000  0.000  0.667
atom   20   Tr[ns(na)] =   4.00000
    eigenvalues: 
  0.667  0.667  0.667
    eigenvectors:
  1.000  0.000  0.000
  0.000  1.000  0.000
  0.000  0.000  1.000
    occupations:
  0.667  0.000  0.000
  0.000  0.667  0.000
  0.000  0.000  0.667
atom   21   Tr[ns(na)] =   4.00000
    eigenvalues: 
  0.667  0.667  0.667
    eigenvectors:
  1.000  0.000  0.000
  0.000  1.000  0.000
  0.000  0.000  1.000
    occupations:
  0.667  0.000  0.000
  0.000  0.667  0.000
  0.000  0.000  0.667
atom   22   Tr[ns(na)] =   4.00000
    eigenvalues: 
  0.667  0.667  0.667
    eigenvectors:
  1.000  0.000  0.000
  0.000  1.000  0.000
  0.000  0.000  1.000
    occupations:
  0.667  0.000  0.000
  0.000  0.667  0.000
  0.000  0.000  0.667
atom   23   Tr[ns(na)] =   4.00000
    eigenvalues: 
  0.667  0.667  0.667
    eigenvectors:
  1.000  0.000  0.000
  0.000  1.000  0.000
  0.000  0.000  1.000
    occupations:
  0.667  0.000  0.000
  0.000  0.667  0.000
  0.000  0.000  0.667
atom   24   Tr[ns(na)] =   4.00000
    eigenvalues: 
  0.667  0.667  0.667
    eigenvectors:
  1.000  0.000  0.000
  0.000  1.000  0.000
  0.000  0.000  1.000
    occupations:
  0.667  0.000  0.000
  0.000  0.667  0.000
  0.000  0.000  0.667
N of occupied +U levels = 192.0000000
 --- exit write_ns ---
 Atomic wfc used for LDA+U Projector are NOT orthogonalized
     Starting wfc are  128 randomized atomic wfcs

     total cpu time spent up to now is        6.4 secs

     per-process dynamical memory:    50.3 Mb

     Self-consistent Calculation

     iteration #  1     ecut=    30.00 Ry     beta=0.30
     Davidson diagonalization with overlap
     ethr =  1.00E-02,  avg # of iterations =  2.0
 --- enter write_ns ---
 LDA+U parameters:
U( 1)     =  0.00000000
alpha( 1) =  0.00000000
U( 2)     =  0.00000000
alpha( 2) =  0.00000000
U( 3)     =  0.00000000
alpha( 3) =  0.00000000
atom    1   Tr[ns(na)] =   9.56425
    eigenvalues: 
  0.813  0.990  0.990  0.995  0.995
    eigenvectors:
  0.000  0.177  0.066  0.478  0.280
  0.333  0.389  0.116  0.003  0.159
  0.333  0.000  0.505  0.138  0.024
  0.000  0.066  0.177  0.280  0.478
  0.333  0.368  0.137  0.102  0.060
    occupations:
  0.994 -0.001 -0.001  0.000 -0.002
 -0.001  0.932 -0.059 -0.002  0.059
 -0.001 -0.059  0.932  0.002  0.059
  0.000 -0.002  0.002  0.994  0.000
 -0.002  0.059  0.059  0.000  0.932
atom    2   Tr[ns(na)] =   9.56446
    eigenvalues: 
  0.813  0.989  0.989  0.995  0.995
    eigenvectors:
  0.000  0.060  0.183  0.190  0.567
  0.333  0.126  0.378  0.040  0.122
  0.333  0.506  0.000  0.161  0.000
  0.000  0.181  0.061  0.569  0.189
  0.333  0.126  0.378  0.040  0.122
    occupations:
  0.994  0.001 -0.001  0.000  0.002
  0.001  0.932  0.059  0.002  0.059
 -0.001  0.059  0.932  0.002 -0.059
  0.000  0.002  0.002  0.994  0.000
  0.002  0.059 -0.059  0.000  0.932
atom    3   Tr[ns(na)] =   9.56446
    eigenvalues: 
  0.813  0.989  0.989  0.995  0.995
    eigenvectors:
  0.000  0.242  0.000  0.758  0.000
  0.333  0.126  0.378  0.040  0.122
  0.333  0.126  0.378  0.040  0.122
  0.000  0.000  0.244  0.000  0.756
  0.333  0.506  0.000  0.161  0.000
    occupations:
  0.994  0.001  0.001  0.000 -0.002
  0.001  0.932 -0.059  0.002 -0.059
  0.001 -0.059  0.932 -0.002 -0.059
  0.000  0.002 -0.002  0.994  0.000
 -0.002 -0.059 -0.059  0.000  0.932
atom    4   Tr[ns(na)] =   9.56446
    eigenvalues: 
  0.813  0.989  0.989  0.995  0.995
    eigenvectors:
  0.000  0.060  0.183  0.190  0.567
  0.333  0.126  0.378  0.040  0.122
  0.333  0.506  0.000  0.161  0.000
  0.000  0.181  0.061  0.569  0.189
  0.333  0.126  0.378  0.040  0.122
    occupations:
  0.994  0.001 -0.001  0.000  0.002
  0.001  0.932  0.059  0.002  0.059
 -0.001  0.059  0.932  0.002 -0.059
  0.000  0.002  0.002  0.994  0.000
  0.002  0.059 -0.059  0.000  0.932
atom    5   Tr[ns(na)] =   9.56435
    eigenvalues: 
  0.813  0.989  0.989  0.995  0.995
    eigenvectors:
  0.000  0.181  0.061  0.189  0.569
  0.333  0.380  0.126  0.040  0.120
  0.333  0.000  0.505  0.162  0.000
  0.000  0.060  0.182  0.568  0.190
  0.333  0.380  0.126  0.040  0.120
    occupations:
  0.994  0.001 -0.001  0.000  0.002
  0.001  0.931  0.059  0.002  0.059
 -0.001  0.059  0.932  0.002 -0.059
  0.000  0.002  0.002  0.994  0.000
  0.002  0.059 -0.059  0.000  0.931
atom    6   Tr[ns(na)] =   9.56435
    eigenvalues: 
  0.813  0.989  0.989  0.995  0.995
    eigenvectors:
  0.000  0.000  0.243  0.757  0.000
  0.333  0.380  0.126  0.040  0.120
  0.333  0.380  0.126  0.040  0.120
  0.000  0.241  0.000  0.000  0.759
  0.333  0.000  0.505  0.162  0.000
    occupations:
  0.994  0.001  0.001  0.000 -0.002
  0.001  0.931 -0.059  0.002 -0.059
  0.001 -0.059  0.931 -0.002 -0.059
  0.000  0.002 -0.002  0.994  0.000
 -0.002 -0.059 -0.059  0.000  0.932
atom    7   Tr[ns(na)] =   9.56441
    eigenvalues: 
  0.813  0.989  0.989  0.995  0.995
    eigenvectors:
  0.000  0.060  0.188  0.190  0.562
  0.334  0.126  0.375  0.040  0.125
  0.333  0.506  0.000  0.161  0.000
  0.000  0.181  0.063  0.569  0.187
  0.334  0.126  0.375  0.040  0.125
    occupations:
  0.994 -0.001 -0.001  0.000 -0.002
 -0.001  0.932 -0.059 -0.002  0.059
 -0.001 -0.059  0.932  0.002  0.059
  0.000 -0.002  0.002  0.994  0.000
 -0.002  0.059  0.059  0.000  0.932
atom    8   Tr[ns(na)] =   9.56435
    eigenvalues: 
  0.813  0.989  0.989  0.995  0.995
    eigenvectors:
  0.000  0.181  0.061  0.189  0.569
  0.333  0.000  0.505  0.162  0.000
  0.333  0.380  0.126  0.040  0.120
  0.000  0.060  0.182  0.568  0.190
  0.333  0.380  0.126  0.040  0.120
    occupations:
  0.994 -0.001  0.001  0.000  0.002
 -0.001  0.932  0.059 -0.002 -0.059
  0.001  0.059  0.931 -0.002  0.059
  0.000 -0.002 -0.002  0.994  0.000
  0.002 -0.059  0.059  0.000  0.931
atom    9   Tr[ns(na)] =   9.56446
    eigenvalues: 
  0.813  0.989  0.989  0.995  0.995
    eigenvectors:
  0.000  0.060  0.183  0.190  0.567
  0.333  0.506  0.000  0.161  0.000
  0.333  0.126  0.378  0.040  0.122
  0.000  0.181  0.061  0.569  0.189
  0.333  0.126  0.378  0.040  0.122
    occupations:
  0.994 -0.001  0.001  0.000  0.002
 -0.001  0.932  0.059 -0.002 -0.059
  0.001  0.059  0.932 -0.002  0.059
  0.000 -0.002 -0.002  0.994  0.000
  0.002 -0.059  0.059  0.000  0.932
atom   10   Tr[ns(na)] =   9.56435
    eigenvalues: 
  0.813  0.989  0.989  0.995  0.995
    eigenvectors:
  0.000  0.181  0.061  0.189  0.569
  0.333  0.000  0.505  0.162  0.000
  0.333  0.380  0.126  0.040  0.120
  0.000  0.060  0.182  0.568  0.190
  0.333  0.380  0.126  0.040  0.120
    occupations:
  0.994 -0.001  0.001  0.000  0.002
 -0.001  0.932  0.059 -0.002 -0.059
  0.001  0.059  0.931 -0.002  0.059
  0.000 -0.002 -0.002  0.994  0.000
  0.002 -0.059  0.059  0.000  0.931
atom   11   Tr[ns(na)] =   9.56446
    eigenvalues: 
  0.813  0.989  0.989  0.995  0.995
    eigenvectors:
  0.000  0.060  0.183  0.190  0.567
  0.333  0.506  0.000  0.161  0.000
  0.333  0.126  0.378  0.040  0.122
  0.000  0.181  0.061  0.569  0.189
  0.333  0.126  0.378  0.040  0.122
    occupations:
  0.994 -0.001  0.001  0.000  0.002
 -0.001  0.932  0.059 -0.002 -0.059
  0.001  0.059  0.932 -0.002  0.059
  0.000 -0.002 -0.002  0.994  0.000
  0.002 -0.059  0.059  0.000  0.932
atom   12   Tr[ns(na)] =   9.56441
    eigenvalues: 
  0.813  0.989  0.989  0.995  0.995
    eigenvectors:
  0.000  0.060  0.188  0.190  0.562
  0.333  0.506  0.000  0.161  0.000
  0.334  0.126  0.375  0.040  0.125
  0.000  0.181  0.063  0.569  0.187
  0.334  0.126  0.375  0.040  0.125
    occupations:
  0.994 -0.001 -0.001  0.000 -0.002
 -0.001  0.932 -0.059 -0.002  0.059
 -0.001 -0.059  0.932  0.002  0.059
  0.000 -0.002  0.002  0.994  0.000
 -0.002  0.059  0.059  0.000  0.932
atom   13   Tr[ns(na)] =   9.56435
    eigenvalues: 
  0.813  0.989  0.989  0.995  0.995
    eigenvectors:
  0.000  0.000  0.243  0.757  0.000
  0.333  0.380  0.126  0.040  0.120
  0.333  0.380  0.126  0.040  0.120
  0.000  0.241  0.000  0.000  0.759
  0.333  0.000  0.505  0.162  0.000
    occupations:
  0.994  0.001  0.001  0.000 -0.002
  0.001  0.931 -0.059  0.002 -0.059
  0.001 -0.059  0.931 -0.002 -0.059
  0.000  0.002 -0.002  0.994  0.000
 -0.002 -0.059 -0.059  0.000  0.932
atom   14   Tr[ns(na)] =   9.56441
    eigenvalues: 
  0.813  0.989  0.989  0.995  0.995
    eigenvectors:
  0.000  0.241  0.000  0.759  0.000
  0.334  0.126  0.375  0.040  0.125
  0.334  0.126  0.375  0.040  0.125
  0.000  0.000  0.251  0.000  0.749
  0.333  0.506  0.000  0.161  0.000
    occupations:
  0.994 -0.001 -0.001  0.000 -0.002
 -0.001  0.932 -0.059 -0.002  0.059
 -0.001 -0.059  0.932  0.002  0.059
  0.000 -0.002  0.002  0.994  0.000
 -0.002  0.059  0.059  0.000  0.932
atom   15   Tr[ns(na)] =   9.56446
    eigenvalues: 
  0.813  0.989  0.989  0.995  0.995
    eigenvectors:
  0.000  0.242  0.000  0.758  0.000
  0.333  0.126  0.378  0.040  0.122
  0.333  0.126  0.378  0.040  0.122
  0.000  0.000  0.244  0.000  0.756
  0.333  0.506  0.000  0.161  0.000
    occupations:
  0.994  0.001  0.001  0.000 -0.002
  0.001  0.932 -0.059  0.002 -0.059
  0.001 -0.059  0.932 -0.002 -0.059
  0.000  0.002 -0.002  0.994  0.000
 -0.002 -0.059 -0.059  0.000  0.932
atom   16   Tr[ns(na)] =   9.56435
    eigenvalues: 
  0.813  0.989  0.989  0.995  0.995
    eigenvectors:
  0.000  0.181  0.061  0.189  0.569
  0.333  0.380  0.126  0.040  0.120
  0.333  0.000  0.505  0.162  0.000
  0.000  0.060  0.182  0.568  0.190
  0.333  0.380  0.126  0.040  0.120
    occupations:
  0.994  0.001 -0.001  0.000  0.002
  0.001  0.931  0.059  0.002  0.059
 -0.001  0.059  0.932  0.002 -0.059
  0.000  0.002  0.002  0.994  0.000
  0.002  0.059 -0.059  0.000  0.931
atom   17   Tr[ns(na)] =   5.98029
    eigenvalues: 
  0.997  0.997  0.997
    eigenvectors:
  0.415  0.252  0.333
  0.572  0.094  0.333
  0.013  0.654  0.333
    occupations:
  0.997  0.000  0.000
  0.000  0.997  0.000
  0.000  0.000  0.997
atom   18   Tr[ns(na)] =   5.98029
    eigenvalues: 
  0.997  0.997  0.997
    eigenvectors:
  0.440  0.227  0.333
  0.554  0.113  0.333
  0.007  0.660  0.333
    occupations:
  0.997  0.000  0.000
  0.000  0.997  0.000
  0.000  0.000  0.997
atom   19   Tr[ns(na)] =   5.98045
    eigenvalues: 
  0.997  0.997  0.997
    eigenvectors:
  0.493  0.007  0.500
  0.014  0.986  0.000
  0.493  0.007  0.500
    occupations:
  0.997  0.000  0.000
  0.000  0.997  0.000
  0.000  0.000  0.997
atom   20   Tr[ns(na)] =   5.98045
    eigenvalues: 
  0.997  0.997  0.997
    eigenvectors:
  0.014  0.986  0.000
  0.493  0.007  0.500
  0.493  0.007  0.500
    occupations:
  0.997  0.000  0.000
  0.000  0.997  0.000
  0.000  0.000  0.997
atom   21   Tr[ns(na)] =   5.98045
    eigenvalues: 
  0.997  0.997  0.997
    eigenvectors:
  0.493  0.007  0.500
  0.014  0.986  0.000
  0.493  0.007  0.500
    occupations:
  0.997  0.000  0.000
  0.000  0.997  0.000
  0.000  0.000  0.997
atom   22   Tr[ns(na)] =   5.98045
    eigenvalues: 
  0.997  0.997  0.997
    eigenvectors:
  0.014  0.986  0.000
  0.493  0.007  0.500
  0.493  0.007  0.500
    occupations:
  0.997  0.000  0.000
  0.000  0.997  0.000
  0.000  0.000  0.997
atom   23   Tr[ns(na)] =   5.98045
    eigenvalues: 
  0.997  0.997  0.997
    eigenvectors:
  0.493  0.007  0.500
  0.493  0.007  0.500
  0.014  0.986  0.000
    occupations:
  0.997  0.000  0.000
  0.000  0.997  0.000
  0.000  0.000  0.997
atom   24   Tr[ns(na)] =   5.98045
    eigenvalues: 
  0.997  0.997  0.997
    eigenvectors:
  0.493  0.007  0.500
  0.493  0.007  0.500
  0.014  0.986  0.000
    occupations:
  0.997  0.000  0.000
  0.000  0.997  0.000
  0.000  0.000  0.997
N of occupied +U levels = 200.8736142
 --- exit write_ns ---

     total cpu time spent up to now is       18.4 secs

     total energy              =   -1655.37852447 Ry
     Harris-Foulkes estimate   =   -1658.64459177 Ry
     estimated scf accuracy    <       7.23716035 Ry

     iteration #  2     ecut=    30.00 Ry     beta=0.30
     Davidson diagonalization with overlap
     ethr =  3.23E-03,  avg # of iterations =  3.0

     total cpu time spent up to now is       33.3 secs

     total energy              =   -1656.99759300 Ry
     Harris-Foulkes estimate   =   -1657.05246772 Ry
     estimated scf accuracy    <       0.21229151 Ry

     iteration #  3     ecut=    30.00 Ry     beta=0.30
     Davidson diagonalization with overlap
     ethr =  9.48E-05,  avg # of iterations =  2.2

     total cpu time spent up to now is       46.5 secs

     total energy              =   -1657.02272401 Ry
     Harris-Foulkes estimate   =   -1657.03128604 Ry
     estimated scf accuracy    <       0.04765057 Ry

     iteration #  4     ecut=    30.00 Ry     beta=0.30
     Davidson diagonalization with overlap
     ethr =  2.13E-05,  avg # of iterations =  2.0

     total cpu time spent up to now is       58.4 secs

     total energy              =   -1657.02416791 Ry
     Harris-Foulkes estimate   =   -1657.02478346 Ry
     estimated scf accuracy    <       0.00493473 Ry

     iteration #  5     ecut=    30.00 Ry     beta=0.30
     Davidson diagonalization with overlap
     ethr =  2.20E-06,  avg # of iterations =  2.2

     total cpu time spent up to now is       70.7 secs

     total energy              =   -1657.02439518 Ry
     Harris-Foulkes estimate   =   -1657.02456465 Ry
     estimated scf accuracy    <       0.00036067 Ry

     iteration #  6     ecut=    30.00 Ry     beta=0.30
     Davidson diagonalization with overlap
     ethr =  1.61E-07,  avg # of iterations =  4.0

     total cpu time spent up to now is       89.9 secs

     total energy              =   -1657.02430253 Ry
     Harris-Foulkes estimate   =   -1657.02498325 Ry
     estimated scf accuracy    <       0.00177448 Ry

     iteration #  7     ecut=    30.00 Ry     beta=0.30
     Davidson diagonalization with overlap
     ethr =  1.61E-07,  avg # of iterations =  3.0

     total cpu time spent up to now is      106.2 secs

     total energy              =   -1657.02459135 Ry
     Harris-Foulkes estimate   =   -1657.02458594 Ry
     estimated scf accuracy    <       0.00000441 Ry

     iteration #  8     ecut=    30.00 Ry     beta=0.30
     Davidson diagonalization with overlap
     ethr =  1.97E-09,  avg # of iterations =  3.0

     total cpu time spent up to now is      120.2 secs

     total energy              =   -1657.02459533 Ry
     Harris-Foulkes estimate   =   -1657.02459215 Ry
     estimated scf accuracy    <       0.00000104 Ry

     iteration #  9     ecut=    30.00 Ry     beta=0.30
     Davidson diagonalization with overlap
     ethr =  4.64E-10,  avg # of iterations =  1.2

     total cpu time spent up to now is      131.3 secs

     total energy              =   -1657.02459667 Ry
     Harris-Foulkes estimate   =   -1657.02459535 Ry
     estimated scf accuracy    <       0.00000074 Ry

     iteration # 10     ecut=    30.00 Ry     beta=0.30
     Davidson diagonalization with overlap
     ethr =  3.29E-10,  avg # of iterations =  3.0

     total cpu time spent up to now is      145.2 secs

     End of self-consistent calculation
 --- enter write_ns ---
 LDA+U parameters:
U( 1)     =  0.00000000
alpha( 1) =  0.00000000
U( 2)     =  0.00000000
alpha( 2) =  0.00000000
U( 3)     =  0.00000000
alpha( 3) =  0.00000000
atom    1   Tr[ns(na)] =   9.77621
    eigenvalues: 
  0.903  0.996  0.996  0.997  0.997
    eigenvectors:
  0.000  0.339  0.123  0.302  0.237
  0.333  0.000  0.359  0.277  0.031
  0.333  0.275  0.084  0.012  0.295
  0.000  0.123  0.339  0.237  0.302
  0.333  0.264  0.095  0.172  0.135
    occupations:
  0.996  0.000  0.000  0.000  0.000
  0.000  0.965 -0.031  0.000  0.031
  0.000 -0.031  0.965  0.000  0.031
  0.000  0.000  0.000  0.996  0.000
  0.000  0.031  0.031  0.000  0.965
atom    2   Tr[ns(na)] =   9.77620
    eigenvalues: 
  0.903  0.996  0.996  0.997  0.997
    eigenvectors:
  0.000  0.115  0.346  0.404  0.135
  0.333  0.090  0.269  0.231  0.077
  0.333  0.359  0.000  0.000  0.308
  0.000  0.346  0.115  0.135  0.404
  0.333  0.090  0.269  0.231  0.077
    occupations:
  0.996  0.000  0.000  0.000  0.000
  0.000  0.965  0.031  0.000  0.031
  0.000  0.031  0.965  0.000 -0.031
  0.000  0.000  0.000  0.996  0.000
  0.000  0.031 -0.031  0.000  0.965
atom    3   Tr[ns(na)] =   9.77620
    eigenvalues: 
  0.903  0.996  0.996  0.997  0.997
    eigenvectors:
  0.000  0.461  0.000  0.000  0.539
  0.333  0.090  0.269  0.231  0.077
  0.333  0.090  0.269  0.231  0.077
  0.000  0.000  0.461  0.539  0.000
  0.333  0.359  0.000  0.000  0.308
    occupations:
  0.996  0.000  0.000  0.000  0.000
  0.000  0.965 -0.031  0.000 -0.031
  0.000 -0.031  0.965  0.000 -0.031
  0.000  0.000  0.000  0.996  0.000
  0.000 -0.031 -0.031  0.000  0.965
atom    4   Tr[ns(na)] =   9.77620
    eigenvalues: 
  0.903  0.996  0.996  0.997  0.997
    eigenvectors:
  0.000  0.115  0.346  0.404  0.135
  0.333  0.090  0.269  0.231  0.077
  0.333  0.359  0.000  0.000  0.308
  0.000  0.346  0.115  0.135  0.404
  0.333  0.090  0.269  0.231  0.077
    occupations:
  0.996  0.000  0.000  0.000  0.000
  0.000  0.965  0.031  0.000  0.031
  0.000  0.031  0.965  0.000 -0.031
  0.000  0.000  0.000  0.996  0.000
  0.000  0.031 -0.031  0.000  0.965
atom    5   Tr[ns(na)] =   9.77620
    eigenvalues: 
  0.903  0.996  0.996  0.997  0.997
    eigenvectors:
  0.000  0.346  0.115  0.135  0.404
  0.333  0.269  0.090  0.077  0.231
  0.333  0.000  0.359  0.308  0.000
  0.000  0.115  0.346  0.404  0.135
  0.333  0.269  0.090  0.077  0.231
    occupations:
  0.996  0.000  0.000  0.000  0.000
  0.000  0.965  0.031  0.000  0.031
  0.000  0.031  0.965  0.000 -0.031
  0.000  0.000  0.000  0.996  0.000
  0.000  0.031 -0.031  0.000  0.965
atom    6   Tr[ns(na)] =   9.77620
    eigenvalues: 
  0.903  0.996  0.996  0.997  0.997
    eigenvectors:
  0.000  0.000  0.461  0.539  0.000
  0.333  0.269  0.090  0.077  0.231
  0.333  0.269  0.090  0.077  0.231
  0.000  0.461  0.000  0.000  0.539
  0.333  0.000  0.359  0.308  0.000
    occupations:
  0.996  0.000  0.000  0.000  0.000
  0.000  0.965 -0.031  0.000 -0.031
  0.000 -0.031  0.965  0.000 -0.031
  0.000  0.000  0.000  0.996  0.000
  0.000 -0.031 -0.031  0.000  0.965
atom    7   Tr[ns(na)] =   9.77620
    eigenvalues: 
  0.903  0.996  0.996  0.997  0.997
    eigenvectors:
  0.000  0.115  0.346  0.135  0.404
  0.333  0.090  0.269  0.077  0.231
  0.333  0.359  0.000  0.308  0.000
  0.000  0.346  0.115  0.404  0.135
  0.333  0.090  0.269  0.077  0.231
    occupations:
  0.996  0.000  0.000  0.000  0.000
  0.000  0.965 -0.031  0.000  0.031
  0.000 -0.031  0.965  0.000  0.031
  0.000  0.000  0.000  0.996  0.000
  0.000  0.031  0.031  0.000  0.965
atom    8   Tr[ns(na)] =   9.77620
    eigenvalues: 
  0.903  0.996  0.996  0.997  0.997
    eigenvectors:
  0.000  0.346  0.115  0.135  0.404
  0.333  0.000  0.359  0.308  0.000
  0.333  0.269  0.090  0.077  0.231
  0.000  0.115  0.346  0.404  0.135
  0.333  0.269  0.090  0.077  0.231
    occupations:
  0.996  0.000  0.000  0.000  0.000
  0.000  0.965  0.031  0.000 -0.031
  0.000  0.031  0.965  0.000  0.031
  0.000  0.000  0.000  0.996  0.000
  0.000 -0.031  0.031  0.000  0.965
atom    9   Tr[ns(na)] =   9.77620
    eigenvalues: 
  0.903  0.996  0.996  0.997  0.997
    eigenvectors:
  0.000  0.115  0.346  0.404  0.135
  0.333  0.359  0.000  0.000  0.308
  0.333  0.090  0.269  0.231  0.077
  0.000  0.346  0.115  0.135  0.404
  0.333  0.090  0.269  0.231  0.077
    occupations:
  0.996  0.000  0.000  0.000  0.000
  0.000  0.965  0.031  0.000 -0.031
  0.000  0.031  0.965  0.000  0.031
  0.000  0.000  0.000  0.996  0.000
  0.000 -0.031  0.031  0.000  0.965
atom   10   Tr[ns(na)] =   9.77620
    eigenvalues: 
  0.903  0.996  0.996  0.997  0.997
    eigenvectors:
  0.000  0.346  0.115  0.135  0.404
  0.333  0.000  0.359  0.308  0.000
  0.333  0.269  0.090  0.077  0.231
  0.000  0.115  0.346  0.404  0.135
  0.333  0.269  0.090  0.077  0.231
    occupations:
  0.996  0.000  0.000  0.000  0.000
  0.000  0.965  0.031  0.000 -0.031
  0.000  0.031  0.965  0.000  0.031
  0.000  0.000  0.000  0.996  0.000
  0.000 -0.031  0.031  0.000  0.965
atom   11   Tr[ns(na)] =   9.77620
    eigenvalues: 
  0.903  0.996  0.996  0.997  0.997
    eigenvectors:
  0.000  0.115  0.346  0.404  0.135
  0.333  0.359  0.000  0.000  0.308
  0.333  0.090  0.269  0.231  0.077
  0.000  0.346  0.115  0.135  0.404
  0.333  0.090  0.269  0.231  0.077
    occupations:
  0.996  0.000  0.000  0.000  0.000
  0.000  0.965  0.031  0.000 -0.031
  0.000  0.031  0.965  0.000  0.031
  0.000  0.000  0.000  0.996  0.000
  0.000 -0.031  0.031  0.000  0.965
atom   12   Tr[ns(na)] =   9.77620
    eigenvalues: 
  0.903  0.996  0.996  0.997  0.997
    eigenvectors:
  0.000  0.115  0.346  0.135  0.404
  0.333  0.359  0.000  0.308  0.000
  0.333  0.090  0.269  0.077  0.231
  0.000  0.346  0.115  0.404  0.135
  0.333  0.090  0.269  0.077  0.231
    occupations:
  0.996  0.000  0.000  0.000  0.000
  0.000  0.965 -0.031  0.000  0.031
  0.000 -0.031  0.965  0.000  0.031
  0.000  0.000  0.000  0.996  0.000
  0.000  0.031  0.031  0.000  0.965
atom   13   Tr[ns(na)] =   9.77620
    eigenvalues: 
  0.903  0.996  0.996  0.997  0.997
    eigenvectors:
  0.000  0.000  0.461  0.539  0.000
  0.333  0.269  0.090  0.077  0.231
  0.333  0.269  0.090  0.077  0.231
  0.000  0.461  0.000  0.000  0.539
  0.333  0.000  0.359  0.308  0.000
    occupations:
  0.996  0.000  0.000  0.000  0.000
  0.000  0.965 -0.031  0.000 -0.031
  0.000 -0.031  0.965  0.000 -0.031
  0.000  0.000  0.000  0.996  0.000
  0.000 -0.031 -0.031  0.000  0.965
atom   14   Tr[ns(na)] =   9.77620
    eigenvalues: 
  0.903  0.996  0.996  0.997  0.997
    eigenvectors:
  0.000  0.461  0.000  0.539  0.000
  0.333  0.090  0.269  0.077  0.231
  0.333  0.090  0.269  0.077  0.231
  0.000  0.000  0.461  0.000  0.539
  0.333  0.359  0.000  0.308  0.000
    occupations:
  0.996  0.000  0.000  0.000  0.000
  0.000  0.965 -0.031  0.000  0.031
  0.000 -0.031  0.965  0.000  0.031
  0.000  0.000  0.000  0.996  0.000
  0.000  0.031  0.031  0.000  0.965
atom   15   Tr[ns(na)] =   9.77620
    eigenvalues: 
  0.903  0.996  0.996  0.997  0.997
    eigenvectors:
  0.000  0.461  0.000  0.000  0.539
  0.333  0.090  0.269  0.231  0.077
  0.333  0.090  0.269  0.231  0.077
  0.000  0.000  0.461  0.539  0.000
  0.333  0.359  0.000  0.000  0.308
    occupations:
  0.996  0.000  0.000  0.000  0.000
  0.000  0.965 -0.031  0.000 -0.031
  0.000 -0.031  0.965  0.000 -0.031
  0.000  0.000  0.000  0.996  0.000
  0.000 -0.031 -0.031  0.000  0.965
atom   16   Tr[ns(na)] =   9.77620
    eigenvalues: 
  0.903  0.996  0.996  0.997  0.997
    eigenvectors:
  0.000  0.346  0.115  0.135  0.404
  0.333  0.269  0.090  0.077  0.231
  0.333  0.000  0.359  0.308  0.000
  0.000  0.115  0.346  0.404  0.135
  0.333  0.269  0.090  0.077  0.231
    occupations:
  0.996  0.000  0.000  0.000  0.000
  0.000  0.965  0.031  0.000  0.031
  0.000  0.031  0.965  0.000 -0.031
  0.000  0.000  0.000  0.996  0.000
  0.000  0.031 -0.031  0.000  0.965
atom   17   Tr[ns(na)] =   5.74459
    eigenvalues: 
  0.957  0.957  0.957
    eigenvectors:
  0.333  0.359  0.307
  0.333  0.608  0.058
  0.333  0.033  0.634
    occupations:
  0.957  0.000  0.000
  0.000  0.957  0.000
  0.000  0.000  0.957
atom   18   Tr[ns(na)] =   5.74459
    eigenvalues: 
  0.957  0.957  0.957
    eigenvectors:
  0.333  0.443  0.224
  0.333  0.551  0.115
  0.333  0.006  0.661
    occupations:
  0.957  0.000  0.000
  0.000  0.957  0.000
  0.000  0.000  0.957
atom   19   Tr[ns(na)] =   5.74458
    eigenvalues: 
  0.957  0.957  0.957
    eigenvectors:
  0.076  0.424  0.500
  0.848  0.152  0.000
  0.076  0.424  0.500
    occupations:
  0.957  0.000  0.000
  0.000  0.957  0.000
  0.000  0.000  0.957
atom   20   Tr[ns(na)] =   5.74458
    eigenvalues: 
  0.957  0.957  0.957
    eigenvectors:
  0.848  0.152  0.000
  0.076  0.424  0.500
  0.076  0.424  0.500
    occupations:
  0.957  0.000  0.000
  0.000  0.957  0.000
  0.000  0.000  0.957
atom   21   Tr[ns(na)] =   5.74458
    eigenvalues: 
  0.957  0.957  0.957
    eigenvectors:
  0.076  0.424  0.500
  0.848  0.152  0.000
  0.076  0.424  0.500
    occupations:
  0.957  0.000  0.000
  0.000  0.957  0.000
  0.000  0.000  0.957
atom   22   Tr[ns(na)] =   5.74458
    eigenvalues: 
  0.957  0.957  0.957
    eigenvectors:
  0.848  0.152  0.000
  0.076  0.424  0.500
  0.076  0.424  0.500
    occupations:
  0.957  0.000  0.000
  0.000  0.957  0.000
  0.000  0.000  0.957
atom   23   Tr[ns(na)] =   5.74458
    eigenvalues: 
  0.957  0.957  0.957
    eigenvectors:
  0.076  0.424  0.500
  0.076  0.424  0.500
  0.848  0.152  0.000
    occupations:
  0.957  0.000  0.000
  0.000  0.957  0.000
  0.000  0.000  0.957
atom   24   Tr[ns(na)] =   5.74458
    eigenvalues: 
  0.957  0.957  0.957
    eigenvectors:
  0.076  0.424  0.500
  0.076  0.424  0.500
  0.848  0.152  0.000
    occupations:
  0.957  0.000  0.000
  0.000  0.957  0.000
  0.000  0.000  0.957
N of occupied +U levels = 202.3758454
 --- exit write_ns ---

          k = 0.0000 0.0000 0.0000 (  6099 PWs)   bands (ev):

   -11.0923 -10.7486 -10.7486 -10.7486 -10.7486 -10.7486 -10.7486 -10.4510
     1.6677   1.6677   1.6677   1.6677   1.6677   1.6677   1.7600   1.7600
     1.7600   2.7411   2.7411   2.7411   2.7411   2.7411   2.7411   3.3485
     3.3485   3.3485   3.3485   3.3485   3.3485   3.9956   4.0890   4.0890
     4.0890   5.6250   5.6250   5.6739   5.6739   5.6739   5.6739   5.6739
     5.6739   5.7457   5.7457   5.7457   5.8835   5.8835   5.8835   5.8835
     5.8835   5.8835   6.2974   6.2974   6.2974   6.2974   6.2974   6.2974
     6.3053   6.3053   6.3053   6.3053   6.3053   6.3053   6.3715   6.3715
     6.3716   6.3716   6.3716   6.3716   6.5158   6.5158   6.6192   6.6192
     6.6192   6.6192   6.6192   6.6192   6.6314   6.6314   6.6314   6.6747
     6.6747   6.6747   6.6817   6.6817   6.6817   6.6817   6.6817   6.6817
     6.9907   6.9907   6.9907   6.9907   6.9907   6.9907   6.9953   6.9953
     6.9953   7.2264   7.2264   7.2264   7.2264   7.2264   7.2264   7.8160
     7.8161   7.8161   7.8161   7.8161   7.8161   8.4051   8.4051   8.4051

          k = 0.0000 0.2500-0.2500 (  6164 PWs)   bands (ev):

   -10.9247 -10.9247 -10.8516 -10.8516 -10.6447 -10.6447 -10.6030 -10.6029
     1.7235   1.7235   1.7830   1.7830   2.0202   2.0202   2.0778   2.0778
     2.0933   2.0933   2.4234   2.4234   2.6811   2.6811   3.1233   3.1233
     3.1752   3.1752   3.2628   3.2628   3.3337   3.3338   3.6514   3.6514
     4.8281   4.8281   5.4177   5.4177   5.5578   5.5578   5.7612   5.7612
     5.7842   5.7842   5.8236   5.8236   6.0313   6.0313   6.0550   6.0550
     6.1026   6.1026   6.1423   6.1423   6.2591   6.2592   6.2811   6.2811
     6.3370   6.3370   6.3658   6.3658   6.4204   6.4205   6.4220   6.4220
     6.4394   6.4395   6.4454   6.4455   6.4628   6.4628   6.5239   6.5239
     6.5402   6.5402   6.6115   6.6115   6.7153   6.7154   6.7164   6.7164
     6.7571   6.7571   6.7704   6.7705   6.7886   6.7886   6.8105   6.8105
     6.8110   6.8110   6.8242   6.8242   6.9234   6.9234   6.9559   6.9559
     6.9881   6.9881   7.2191   7.2191   7.2681   7.2681   7.3801   7.3801
     7.7342   7.7342   7.8912   7.8912   7.8978   7.8978   8.1546   8.1546

          k = 0.0000 0.0000-0.5000 (  6098 PWs)   bands (ev):

   -10.9361 -10.7674 -10.7674 -10.7674 -10.7674 -10.7674 -10.7674 -10.5192
     1.8558   1.8558   1.8558   2.3418   2.3418   2.3418   2.3418   2.3418
     2.3418   2.3991   2.3991   2.3991   2.3991   2.3991   2.3991   3.0133
     3.0133   3.0133   3.0133   3.0133   3.0133   3.2572   3.2572   3.2572
     5.3201   5.3201   5.3201   5.3201   5.3202   5.3202   5.4638   5.4638
     5.4638   6.0033   6.0033   6.0383   6.0383   6.0383   6.0383   6.0383
     6.0383   6.2529   6.2529   6.2529   6.2529   6.2530   6.2530   6.3200
     6.3200   6.3200   6.4552   6.4552   6.4552   6.4552   6.4552   6.4552
     6.4681   6.4681   6.4682   6.4682   6.4682   6.4682   6.4870   6.4870
     6.4871   6.4871   6.4871   6.4871   6.5706   6.5706   6.5706   6.6545
     6.6545   6.6545   6.6545   6.6545   6.6545   6.7033   6.7033   6.7033
     6.8650   6.8650   6.8650   6.8650   6.8650   6.8650   6.9510   6.9510
     7.2413   7.2413   7.2413   7.2413   7.2413   7.2414   7.4037   7.8998
     7.8998   7.8998   8.0564   8.0565   8.0565   8.0565   8.0565   8.0565

          k = 0.0000-0.2500-0.2500 (  6164 PWs)   bands (ev):

   -10.9247 -10.9247 -10.8516 -10.8516 -10.6447 -10.6447 -10.6029 -10.6029
     1.7235   1.7235   1.7830   1.7830   2.0202   2.0202   2.0778   2.0778
     2.0933   2.0933   2.4234   2.4234   2.6811   2.6811   3.1233   3.1233
     3.1752   3.1752   3.2628   3.2628   3.3337   3.3337   3.6514   3.6514
     4.8281   4.8281   5.4177   5.4177   5.5578   5.5578   5.7611   5.7612
     5.7842   5.7842   5.8236   5.8236   6.0313   6.0313   6.0550   6.0550
     6.1025   6.1026   6.1423   6.1423   6.2592   6.2592   6.2811   6.2811
     6.3370   6.3370   6.3658   6.3658   6.4204   6.4205   6.4220   6.4220
     6.4395   6.4395   6.4455   6.4455   6.4628   6.4628   6.5239   6.5239
     6.5402   6.5402   6.6115   6.6115   6.7154   6.7154   6.7164   6.7164
     6.7571   6.7571   6.7704   6.7704   6.7886   6.7886   6.8105   6.8105
     6.8110   6.8110   6.8242   6.8242   6.9234   6.9234   6.9559   6.9559
     6.9881   6.9881   7.2191   7.2191   7.2681   7.2681   7.3801   7.3801
     7.7342   7.7342   7.8912   7.8912   7.8978   7.8978   8.1546   8.1546

!    total energy              =   -1657.02459833 Ry
     Harris-Foulkes estimate   =   -1657.02459681 Ry
     estimated scf accuracy    <          8.7E-09 Ry

     The total energy is the sum of the following terms:

     one-electron contribution =    -562.95429054 Ry
     hartree contribution      =     504.01008747 Ry
     xc contribution           =    -286.11491495 Ry
     ewald contribution        =   -1311.96548030 Ry
     Hubbard energy            =       0.00000000 Ry

     convergence has been achieved in  10 iterations

     Writing output data file cu2o.save
 
     init_run     :      5.86s CPU      6.31s WALL (       1 calls)
     electrons    :    132.31s CPU    138.82s WALL (       1 calls)

     Called by init_run:
     wfcinit      :      3.55s CPU      3.76s WALL (       1 calls)
     potinit      :      0.30s CPU      0.38s WALL (       1 calls)

     Called by electrons:
     c_bands      :     88.58s CPU     91.89s WALL (      10 calls)
     sum_band     :     26.61s CPU     27.68s WALL (      10 calls)
     v_of_rho     :      2.31s CPU      2.75s WALL (      11 calls)
     newd         :     15.41s CPU     17.02s WALL (      11 calls)
     mix_rho      :      0.38s CPU      0.43s WALL (      10 calls)

     Called by c_bands:
     init_us_2    :      0.67s CPU      0.68s WALL (      88 calls)
     cegterg      :     87.16s CPU     89.91s WALL (      40 calls)

     Called by *egterg:
     h_psi        :     58.17s CPU     58.39s WALL (     147 calls)
     s_psi        :      5.46s CPU      5.45s WALL (     151 calls)
     g_psi        :      0.24s CPU      0.23s WALL (     103 calls)
     cdiaghg      :     10.64s CPU     10.62s WALL (     143 calls)

     Called by h_psi:
     add_vuspsi   :      5.38s CPU      5.40s WALL (     147 calls)

     General routines
     calbec       :     10.05s CPU     10.10s WALL (     378 calls)
     fft          :      2.16s CPU      2.58s WALL (     171 calls)
     ffts         :      0.04s CPU      0.05s WALL (      21 calls)
     fftw         :     33.05s CPU     33.22s WALL (   28648 calls)
     interpolate  :      0.30s CPU      0.46s WALL (      21 calls)
     davcio       :      0.00s CPU      1.28s WALL (     256 calls)
 
     Parallel routines
     fft_scatter  :     11.63s CPU     11.94s WALL (   28840 calls)
     EXX routines
 
     PWSCF        :  2m18.37s CPU     2m25.38s WALL

 
   This run was terminated on:  21:36:17  17Jun2012            

=------------------------------------------------------------------------------=
   JOB DONE.
=------------------------------------------------------------------------------=
