
     Program PWSCF v.5.0        starts on 17Jun2012 at 21:37:22 

     This program is part of the open-source Quantum ESPRESSO suite
     for quantum simulation of materials; please cite
         "P. Giannozzi et al., J. Phys.:Condens. Matter 21 395502 (2009);
          URL http://www.quantum-espresso.org", 
     in publications or presentations arising from this work. More details at
     http://www.quantum-espresso.org/quote.php

     Parallel version (MPI), running on     4 processors
     R & G space division:  proc/pool =    4

     Current dimensions of program PWSCF are:
     Max number of different atomic species (ntypx) = 10
     Max number of k-points (npk) =  40000
     Max angular momentum in pseudopotentials (lmaxx) =  3
     Waiting for input...
     Reading input from standard input
               file O.pbe-rrkjus.UPF: wavefunction(s)  2S renormalized

     Subspace diagonalization in iterative solution of the eigenvalue problem:
     a serial algorithm will be used

 
     Parallelization info
     --------------------
     sticks:   dense  smooth     PW     G-vecs:    dense   smooth      PW
     Min        1137     455    131                48485    12292    1908
     Max        1138     456    132                48486    12300    1909
     Sum        4549    1821    527               193941    49181    7635
 


     bravais-lattice index     =            0
     lattice parameter (alat)  =       8.2100  a.u.
     unit-cell volume          =    2213.5506 (a.u.)^3
     number of atoms/cell      =           24
     number of atomic types    =            3
     number of electrons       =       224.00
     number of Kohn-Sham states=          112
     kinetic-energy cutoff     =      30.0000  Ry
     charge density cutoff     =     300.0000  Ry
     convergence threshold     =      1.0E-08
     mixing beta               =       0.3000
     number of iterations used =            8  plain     mixing
     Exchange-correlation      =  SLA  PW   PBE  PBE ( 1 4 3 4 0)
     EXX-fraction              =        0.00

     celldm(1)=   8.210000  celldm(2)=   0.000000  celldm(3)=   0.000000
     celldm(4)=   0.000000  celldm(5)=   0.000000  celldm(6)=   0.000000

     crystal axes: (cart. coord. in units of alat)
               a(1) = (   1.000000   1.000000   1.000000 )  
               a(2) = (  -1.000000   1.000000   1.000000 )  
               a(3) = (  -1.000000  -1.000000   1.000000 )  

     reciprocal axes: (cart. coord. in units 2 pi/alat)
               b(1) = (  0.500000  0.000000  0.500000 )  
               b(2) = ( -0.500000  0.500000  0.000000 )  
               b(3) = (  0.000000 -0.500000  0.500000 )  


     PseudoPot. # 1 for Cu read from file:
     ../pseudo/Cu.pbe-d-rrkjus.UPF
     MD5 check sum: 855c9c66b119533e70b4be5d3ca221fe
     Pseudo is Ultrasoft, Zval = 11.0
     Generated by new atomic code, or converted to UPF format
     Using radial grid of  899 points,  3 beta functions with: 
                l(1) =   2
                l(2) =   2
                l(3) =   1
     Q(r) pseudized with 0 coefficients 


     PseudoPot. # 2 for Cu read from file:
     ../pseudo/Cu.pbe-d-rrkjus.UPF
     MD5 check sum: 855c9c66b119533e70b4be5d3ca221fe
     Pseudo is Ultrasoft, Zval = 11.0
     Generated by new atomic code, or converted to UPF format
     Using radial grid of  899 points,  3 beta functions with: 
                l(1) =   2
                l(2) =   2
                l(3) =   1
     Q(r) pseudized with 0 coefficients 


     PseudoPot. # 3 for O  read from file:
     ../pseudo/O.pbe-rrkjus.UPF
     MD5 check sum: 390ba29e75625707450f3bd3f0eb6be9
     Pseudo is Ultrasoft, Zval =  6.0
     Generated by new atomic code, or converted to UPF format
     Using radial grid of 1269 points,  4 beta functions with: 
                l(1) =   0
                l(2) =   0
                l(3) =   1
                l(4) =   1
     Q(r) pseudized with 0 coefficients 


     atomic species   valence    mass     pseudopotential
        Cu1           11.00     1.00000     Cu( 1.00)
        Cu            11.00     1.00000     Cu( 1.00)
        O              6.00     1.00000     O ( 1.00)
 -----
     simplified LDA+U calculation, Hubbard_lmax = 2
     atomic species  L   Hubbard U  Hubbard alpha
        Cu1          2    0.000000    0.000000
        Cu           2    0.000000    0.000000
        O            1    0.000000    0.000000
 -----

     12 Sym. Ops., with inversion, found



   Cartesian axes

     site n.     atom                  positions (alat units)
         1           Cu1 tau(   1) = (   0.0000000   0.0000000   0.0000000  )
         2           Cu  tau(   2) = (  -1.0000000   0.5000000   0.5000000  )
         3           Cu  tau(   3) = (  -0.5000000  -0.5000000   0.0000000  )
         4           Cu  tau(   4) = (   0.0000000   0.5000000   0.5000000  )
         5           Cu  tau(   5) = (  -1.0000000  -0.5000000   0.5000000  )
         6           Cu  tau(   6) = (  -1.5000000  -0.5000000   1.0000000  )
         7           Cu  tau(   7) = (   0.0000000   1.0000000   1.0000000  )
         8           Cu  tau(   8) = (  -0.5000000   0.0000000   0.5000000  )
         9           Cu  tau(   9) = (  -0.5000000   0.0000000   1.5000000  )
        10           Cu  tau(  10) = (  -1.5000000   0.0000000   1.5000000  )
        11           Cu  tau(  11) = (  -0.5000000   1.0000000   1.5000000  )
        12           Cu  tau(  12) = (  -1.0000000   0.0000000   1.0000000  )
        13           Cu  tau(  13) = (  -0.5000000   0.5000000   1.0000000  )
        14           Cu  tau(  14) = (   0.0000000   0.0000000   1.0000000  )
        15           Cu  tau(  15) = (  -0.5000000  -0.5000000   1.0000000  )
        16           Cu  tau(  16) = (  -1.0000000   0.5000000   1.5000000  )
        17           O   tau(  17) = (  -0.2500000  -0.2500000  -0.2500000  )
        18           O   tau(  18) = (   0.2500000   0.2500000   0.2500000  )
        19           O   tau(  19) = (  -0.7500000   0.2500000   0.2500000  )
        20           O   tau(  20) = (  -0.7500000  -0.7500000   0.2500000  )
        21           O   tau(  21) = (  -0.2500000   0.7500000   0.7500000  )
        22           O   tau(  22) = (  -0.2500000  -0.2500000   0.7500000  )
        23           O   tau(  23) = (  -1.2500000  -0.2500000   0.7500000  )
        24           O   tau(  24) = (  -0.7500000   0.2500000   1.2500000  )

     number of k points=     4
                       cart. coord. in units 2pi/alat
        k(    1) = (   0.0000000   0.0000000   0.0000000), wk =   0.2500000
        k(    2) = (   0.0000000   0.2500000  -0.2500000), wk =   0.7500000
        k(    3) = (   0.0000000   0.0000000  -0.5000000), wk =   0.2500000
        k(    4) = (   0.0000000  -0.2500000  -0.2500000), wk =   0.7500000

     Dense  grid:   193941 G-vectors     FFT dimensions: (  80,  80,  80)

     Smooth grid:    49181 G-vectors     FFT dimensions: (  50,  50,  50)

     Largest allocated arrays     est. size (Mb)     dimensions
        Kohn-Sham Wavefunctions         2.63 Mb     (   1538,  112)
        Atomic wavefunctions            3.00 Mb     (   1538,  128)
        NL pseudopotentials             6.38 Mb     (   1538,  272)
        Each V/rho on FFT grid          1.95 Mb     ( 128000)
        Each G-vector array             0.37 Mb     (  48486)
        G-vector shells                 0.01 Mb     (    939)
     Largest temporary arrays     est. size (Mb)     dimensions
        Auxiliary wavefunctions        10.51 Mb     (   1538,  448)
        Each subspace H/S matrix        3.06 Mb     ( 448, 448)
        Each <psi_i|beta_j> matrix      0.46 Mb     (    272,  112)
        Arrays for rho mixing          15.62 Mb     ( 128000,   8)

     The initial density is read from file :
     ./temp/cu2o.save/charge-density.dat

     Number of +U iterations with fixed ns =  0
     Starting occupations:
 --- enter write_ns ---
 LDA+U parameters:
U( 1)     =  0.00000000
alpha( 1) =  0.00000000
U( 2)     =  0.00000000
alpha( 2) =  0.00000000
U( 3)     =  0.00000000
alpha( 3) =  0.00000000
atom    1   Tr[ns(na)] =   9.77621
    eigenvalues: 
  0.903  0.996  0.996  0.997  0.997
    eigenvectors:
  0.000  0.338  0.123  0.210  0.329
  0.333  0.000  0.359  0.301  0.007
  0.333  0.275  0.084  0.041  0.267
  0.000  0.123  0.338  0.329  0.210
  0.333  0.263  0.096  0.120  0.188
    occupations:
  0.996  0.000  0.000  0.000  0.000
  0.000  0.965 -0.031  0.000  0.031
  0.000 -0.031  0.965  0.000  0.031
  0.000  0.000  0.000  0.996  0.000
  0.000  0.031  0.031  0.000  0.965
atom    2   Tr[ns(na)] =   9.77620
    eigenvalues: 
  0.903  0.996  0.996  0.997  0.997
    eigenvectors:
  0.000  0.115  0.346  0.404  0.135
  0.333  0.090  0.269  0.231  0.077
  0.333  0.359  0.000  0.000  0.308
  0.000  0.346  0.115  0.135  0.404
  0.333  0.090  0.269  0.231  0.077
    occupations:
  0.996  0.000  0.000  0.000  0.000
  0.000  0.965  0.031  0.000  0.031
  0.000  0.031  0.965  0.000 -0.031
  0.000  0.000  0.000  0.996  0.000
  0.000  0.031 -0.031  0.000  0.965
atom    3   Tr[ns(na)] =   9.77620
    eigenvalues: 
  0.903  0.996  0.996  0.997  0.997
    eigenvectors:
  0.000  0.461  0.000  0.000  0.539
  0.333  0.090  0.269  0.231  0.077
  0.333  0.090  0.269  0.231  0.077
  0.000  0.000  0.461  0.539  0.000
  0.333  0.359  0.000  0.000  0.308
    occupations:
  0.996  0.000  0.000  0.000  0.000
  0.000  0.965 -0.031  0.000 -0.031
  0.000 -0.031  0.965  0.000 -0.031
  0.000  0.000  0.000  0.996  0.000
  0.000 -0.031 -0.031  0.000  0.965
atom    4   Tr[ns(na)] =   9.77620
    eigenvalues: 
  0.903  0.996  0.996  0.997  0.997
    eigenvectors:
  0.000  0.115  0.346  0.404  0.135
  0.333  0.090  0.269  0.231  0.077
  0.333  0.359  0.000  0.000  0.308
  0.000  0.346  0.115  0.135  0.404
  0.333  0.090  0.269  0.231  0.077
    occupations:
  0.996  0.000  0.000  0.000  0.000
  0.000  0.965  0.031  0.000  0.031
  0.000  0.031  0.965  0.000 -0.031
  0.000  0.000  0.000  0.996  0.000
  0.000  0.031 -0.031  0.000  0.965
atom    5   Tr[ns(na)] =   9.77620
    eigenvalues: 
  0.903  0.996  0.996  0.997  0.997
    eigenvectors:
  0.000  0.346  0.115  0.135  0.404
  0.333  0.269  0.090  0.077  0.231
  0.333  0.000  0.359  0.308  0.000
  0.000  0.115  0.346  0.404  0.135
  0.333  0.269  0.090  0.077  0.231
    occupations:
  0.996  0.000  0.000  0.000  0.000
  0.000  0.965  0.031  0.000  0.031
  0.000  0.031  0.965  0.000 -0.031
  0.000  0.000  0.000  0.996  0.000
  0.000  0.031 -0.031  0.000  0.965
atom    6   Tr[ns(na)] =   9.77620
    eigenvalues: 
  0.903  0.996  0.996  0.997  0.997
    eigenvectors:
  0.000  0.000  0.461  0.539  0.000
  0.333  0.269  0.090  0.077  0.231
  0.333  0.269  0.090  0.077  0.231
  0.000  0.461  0.000  0.000  0.539
  0.333  0.000  0.359  0.308  0.000
    occupations:
  0.996  0.000  0.000  0.000  0.000
  0.000  0.965 -0.031  0.000 -0.031
  0.000 -0.031  0.965  0.000 -0.031
  0.000  0.000  0.000  0.996  0.000
  0.000 -0.031 -0.031  0.000  0.965
atom    7   Tr[ns(na)] =   9.77620
    eigenvalues: 
  0.903  0.996  0.996  0.997  0.997
    eigenvectors:
  0.000  0.115  0.346  0.135  0.404
  0.333  0.090  0.269  0.077  0.231
  0.333  0.359  0.000  0.308  0.000
  0.000  0.346  0.115  0.404  0.135
  0.333  0.090  0.269  0.077  0.231
    occupations:
  0.996  0.000  0.000  0.000  0.000
  0.000  0.965 -0.031  0.000  0.031
  0.000 -0.031  0.965  0.000  0.031
  0.000  0.000  0.000  0.996  0.000
  0.000  0.031  0.031  0.000  0.965
atom    8   Tr[ns(na)] =   9.77620
    eigenvalues: 
  0.903  0.996  0.996  0.997  0.997
    eigenvectors:
  0.000  0.346  0.115  0.135  0.404
  0.333  0.000  0.359  0.308  0.000
  0.333  0.269  0.090  0.077  0.231
  0.000  0.115  0.346  0.404  0.135
  0.333  0.269  0.090  0.077  0.231
    occupations:
  0.996  0.000  0.000  0.000  0.000
  0.000  0.965  0.031  0.000 -0.031
  0.000  0.031  0.965  0.000  0.031
  0.000  0.000  0.000  0.996  0.000
  0.000 -0.031  0.031  0.000  0.965
atom    9   Tr[ns(na)] =   9.77620
    eigenvalues: 
  0.903  0.996  0.996  0.997  0.997
    eigenvectors:
  0.000  0.115  0.346  0.404  0.135
  0.333  0.359  0.000  0.000  0.308
  0.333  0.090  0.269  0.231  0.077
  0.000  0.346  0.115  0.135  0.404
  0.333  0.090  0.269  0.231  0.077
    occupations:
  0.996  0.000  0.000  0.000  0.000
  0.000  0.965  0.031  0.000 -0.031
  0.000  0.031  0.965  0.000  0.031
  0.000  0.000  0.000  0.996  0.000
  0.000 -0.031  0.031  0.000  0.965
atom   10   Tr[ns(na)] =   9.77620
    eigenvalues: 
  0.903  0.996  0.996  0.997  0.997
    eigenvectors:
  0.000  0.346  0.115  0.135  0.404
  0.333  0.000  0.359  0.308  0.000
  0.333  0.269  0.090  0.077  0.231
  0.000  0.115  0.346  0.404  0.135
  0.333  0.269  0.090  0.077  0.231
    occupations:
  0.996  0.000  0.000  0.000  0.000
  0.000  0.965  0.031  0.000 -0.031
  0.000  0.031  0.965  0.000  0.031
  0.000  0.000  0.000  0.996  0.000
  0.000 -0.031  0.031  0.000  0.965
atom   11   Tr[ns(na)] =   9.77620
    eigenvalues: 
  0.903  0.996  0.996  0.997  0.997
    eigenvectors:
  0.000  0.115  0.346  0.404  0.135
  0.333  0.359  0.000  0.000  0.308
  0.333  0.090  0.269  0.231  0.077
  0.000  0.346  0.115  0.135  0.404
  0.333  0.090  0.269  0.231  0.077
    occupations:
  0.996  0.000  0.000  0.000  0.000
  0.000  0.965  0.031  0.000 -0.031
  0.000  0.031  0.965  0.000  0.031
  0.000  0.000  0.000  0.996  0.000
  0.000 -0.031  0.031  0.000  0.965
atom   12   Tr[ns(na)] =   9.77620
    eigenvalues: 
  0.903  0.996  0.996  0.997  0.997
    eigenvectors:
  0.000  0.115  0.346  0.135  0.404
  0.333  0.359  0.000  0.308  0.000
  0.333  0.090  0.269  0.077  0.231
  0.000  0.346  0.115  0.404  0.135
  0.333  0.090  0.269  0.077  0.231
    occupations:
  0.996  0.000  0.000  0.000  0.000
  0.000  0.965 -0.031  0.000  0.031
  0.000 -0.031  0.965  0.000  0.031
  0.000  0.000  0.000  0.996  0.000
  0.000  0.031  0.031  0.000  0.965
atom   13   Tr[ns(na)] =   9.77620
    eigenvalues: 
  0.903  0.996  0.996  0.997  0.997
    eigenvectors:
  0.000  0.000  0.461  0.539  0.000
  0.333  0.269  0.090  0.077  0.231
  0.333  0.269  0.090  0.077  0.231
  0.000  0.461  0.000  0.000  0.539
  0.333  0.000  0.359  0.308  0.000
    occupations:
  0.996  0.000  0.000  0.000  0.000
  0.000  0.965 -0.031  0.000 -0.031
  0.000 -0.031  0.965  0.000 -0.031
  0.000  0.000  0.000  0.996  0.000
  0.000 -0.031 -0.031  0.000  0.965
atom   14   Tr[ns(na)] =   9.77620
    eigenvalues: 
  0.903  0.996  0.996  0.997  0.997
    eigenvectors:
  0.000  0.461  0.000  0.539  0.000
  0.333  0.090  0.269  0.077  0.231
  0.333  0.090  0.269  0.077  0.231
  0.000  0.000  0.461  0.000  0.539
  0.333  0.359  0.000  0.308  0.000
    occupations:
  0.996  0.000  0.000  0.000  0.000
  0.000  0.965 -0.031  0.000  0.031
  0.000 -0.031  0.965  0.000  0.031
  0.000  0.000  0.000  0.996  0.000
  0.000  0.031  0.031  0.000  0.965
atom   15   Tr[ns(na)] =   9.77620
    eigenvalues: 
  0.903  0.996  0.996  0.997  0.997
    eigenvectors:
  0.000  0.461  0.000  0.000  0.539
  0.333  0.090  0.269  0.231  0.077
  0.333  0.090  0.269  0.231  0.077
  0.000  0.000  0.461  0.539  0.000
  0.333  0.359  0.000  0.000  0.308
    occupations:
  0.996  0.000  0.000  0.000  0.000
  0.000  0.965 -0.031  0.000 -0.031
  0.000 -0.031  0.965  0.000 -0.031
  0.000  0.000  0.000  0.996  0.000
  0.000 -0.031 -0.031  0.000  0.965
atom   16   Tr[ns(na)] =   9.77620
    eigenvalues: 
  0.903  0.996  0.996  0.997  0.997
    eigenvectors:
  0.000  0.346  0.115  0.135  0.404
  0.333  0.269  0.090  0.077  0.231
  0.333  0.000  0.359  0.308  0.000
  0.000  0.115  0.346  0.404  0.135
  0.333  0.269  0.090  0.077  0.231
    occupations:
  0.996  0.000  0.000  0.000  0.000
  0.000  0.965  0.031  0.000  0.031
  0.000  0.031  0.965  0.000 -0.031
  0.000  0.000  0.000  0.996  0.000
  0.000  0.031 -0.031  0.000  0.965
atom   17   Tr[ns(na)] =   5.74459
    eigenvalues: 
  0.957  0.957  0.957
    eigenvectors:
  0.333  0.359  0.307
  0.333  0.608  0.058
  0.333  0.033  0.634
    occupations:
  0.957  0.000  0.000
  0.000  0.957  0.000
  0.000  0.000  0.957
atom   18   Tr[ns(na)] =   5.74459
    eigenvalues: 
  0.957  0.957  0.957
    eigenvectors:
  0.333  0.414  0.252
  0.333  0.573  0.094
  0.333  0.013  0.654
    occupations:
  0.957  0.000  0.000
  0.000  0.957  0.000
  0.000  0.000  0.957
atom   19   Tr[ns(na)] =   5.74458
    eigenvalues: 
  0.957  0.957  0.957
    eigenvectors:
  0.076  0.424  0.500
  0.848  0.152  0.000
  0.076  0.424  0.500
    occupations:
  0.957  0.000  0.000
  0.000  0.957  0.000
  0.000  0.000  0.957
atom   20   Tr[ns(na)] =   5.74458
    eigenvalues: 
  0.957  0.957  0.957
    eigenvectors:
  0.848  0.152  0.000
  0.076  0.424  0.500
  0.076  0.424  0.500
    occupations:
  0.957  0.000  0.000
  0.000  0.957  0.000
  0.000  0.000  0.957
atom   21   Tr[ns(na)] =   5.74458
    eigenvalues: 
  0.957  0.957  0.957
    eigenvectors:
  0.076  0.424  0.500
  0.848  0.152  0.000
  0.076  0.424  0.500
    occupations:
  0.957  0.000  0.000
  0.000  0.957  0.000
  0.000  0.000  0.957
atom   22   Tr[ns(na)] =   5.74458
    eigenvalues: 
  0.957  0.957  0.957
    eigenvectors:
  0.848  0.152  0.000
  0.076  0.424  0.500
  0.076  0.424  0.500
    occupations:
  0.957  0.000  0.000
  0.000  0.957  0.000
  0.000  0.000  0.957
atom   23   Tr[ns(na)] =   5.74458
    eigenvalues: 
  0.957  0.957  0.957
    eigenvectors:
  0.076  0.424  0.500
  0.076  0.424  0.500
  0.848  0.152  0.000
    occupations:
  0.957  0.000  0.000
  0.000  0.957  0.000
  0.000  0.000  0.957
atom   24   Tr[ns(na)] =   5.74458
    eigenvalues: 
  0.957  0.957  0.957
    eigenvectors:
  0.076  0.424  0.500
  0.076  0.424  0.500
  0.848  0.152  0.000
    occupations:
  0.957  0.000  0.000
  0.000  0.957  0.000
  0.000  0.000  0.957
N of occupied +U levels = 202.3758454
 --- exit write_ns ---
 Atomic wfc used for LDA+U Projector are NOT orthogonalized
     Starting wfc from file

     total cpu time spent up to now is        4.0 secs

     per-process dynamical memory:    45.3 Mb

     Self-consistent Calculation

     iteration #  1     ecut=    30.00 Ry     beta=0.30
     Davidson diagonalization with overlap
     ethr =  3.29E-10,  avg # of iterations =  2.2
 --- enter write_ns ---
 LDA+U parameters:
U( 1)     =  0.00000000
alpha( 1) =  0.00000000
U( 2)     =  0.00000000
alpha( 2) =  0.00000000
U( 3)     =  0.00000000
alpha( 3) =  0.00000000
atom    1   Tr[ns(na)] =   9.77615
    eigenvalues: 
  0.903  0.996  0.996  0.997  0.997
    eigenvectors:
  0.000  0.305  0.156  0.187  0.352
  0.333  0.003  0.356  0.304  0.003
  0.333  0.298  0.062  0.051  0.257
  0.000  0.156  0.305  0.352  0.187
  0.333  0.238  0.121  0.106  0.201
    occupations:
  0.996  0.000  0.000  0.000  0.000
  0.000  0.965 -0.031  0.000  0.031
  0.000 -0.031  0.965  0.000  0.031
  0.000  0.000  0.000  0.996  0.000
  0.000  0.031  0.031  0.000  0.965
atom    2   Tr[ns(na)] =   9.77619
    eigenvalues: 
  0.903  0.996  0.996  0.997  0.997
    eigenvectors:
  0.000  0.346  0.115  0.135  0.404
  0.333  0.269  0.090  0.077  0.231
  0.333  0.000  0.359  0.307  0.000
  0.000  0.115  0.346  0.404  0.135
  0.333  0.269  0.090  0.077  0.231
    occupations:
  0.996  0.000  0.000  0.000  0.000
  0.000  0.965  0.031  0.000  0.031
  0.000  0.031  0.965  0.000 -0.031
  0.000  0.000  0.000  0.996  0.000
  0.000  0.031 -0.031  0.000  0.965
atom    3   Tr[ns(na)] =   9.77619
    eigenvalues: 
  0.903  0.996  0.996  0.997  0.997
    eigenvectors:
  0.000  0.000  0.461  0.539  0.000
  0.333  0.269  0.090  0.077  0.231
  0.333  0.269  0.090  0.077  0.231
  0.000  0.461  0.000  0.000  0.539
  0.333  0.000  0.359  0.307  0.000
    occupations:
  0.996  0.000  0.000  0.000  0.000
  0.000  0.965 -0.031  0.000 -0.031
  0.000 -0.031  0.965  0.000 -0.031
  0.000  0.000  0.000  0.996  0.000
  0.000 -0.031 -0.031  0.000  0.965
atom    4   Tr[ns(na)] =   9.77619
    eigenvalues: 
  0.903  0.996  0.996  0.997  0.997
    eigenvectors:
  0.000  0.346  0.115  0.135  0.404
  0.333  0.269  0.090  0.077  0.231
  0.333  0.000  0.359  0.307  0.000
  0.000  0.115  0.346  0.404  0.135
  0.333  0.269  0.090  0.077  0.231
    occupations:
  0.996  0.000  0.000  0.000  0.000
  0.000  0.965  0.031  0.000  0.031
  0.000  0.031  0.965  0.000 -0.031
  0.000  0.000  0.000  0.996  0.000
  0.000  0.031 -0.031  0.000  0.965
atom    5   Tr[ns(na)] =   9.77620
    eigenvalues: 
  0.903  0.996  0.996  0.997  0.997
    eigenvectors:
  0.000  0.115  0.346  0.404  0.135
  0.333  0.090  0.269  0.231  0.077
  0.333  0.359  0.000  0.000  0.307
  0.000  0.346  0.115  0.135  0.404
  0.333  0.090  0.269  0.231  0.077
    occupations:
  0.996  0.000  0.000  0.000  0.000
  0.000  0.965  0.031  0.000  0.031
  0.000  0.031  0.965  0.000 -0.031
  0.000  0.000  0.000  0.996  0.000
  0.000  0.031 -0.031  0.000  0.965
atom    6   Tr[ns(na)] =   9.77620
    eigenvalues: 
  0.903  0.996  0.996  0.997  0.997
    eigenvectors:
  0.000  0.461  0.000  0.000  0.539
  0.333  0.090  0.269  0.231  0.077
  0.333  0.090  0.269  0.231  0.077
  0.000  0.000  0.461  0.539  0.000
  0.333  0.359  0.000  0.000  0.307
    occupations:
  0.996  0.000  0.000  0.000  0.000
  0.000  0.965 -0.031  0.000 -0.031
  0.000 -0.031  0.965  0.000 -0.031
  0.000  0.000  0.000  0.996  0.000
  0.000 -0.031 -0.031  0.000  0.965
atom    7   Tr[ns(na)] =   9.77620
    eigenvalues: 
  0.903  0.996  0.996  0.997  0.997
    eigenvectors:
  0.000  0.346  0.115  0.404  0.135
  0.333  0.269  0.090  0.231  0.077
  0.333  0.000  0.359  0.000  0.307
  0.000  0.115  0.346  0.135  0.404
  0.333  0.269  0.090  0.231  0.077
    occupations:
  0.996  0.000  0.000  0.000  0.000
  0.000  0.965 -0.031  0.000  0.031
  0.000 -0.031  0.965  0.000  0.031
  0.000  0.000  0.000  0.996  0.000
  0.000  0.031  0.031  0.000  0.965
atom    8   Tr[ns(na)] =   9.77620
    eigenvalues: 
  0.903  0.996  0.996  0.997  0.997
    eigenvectors:
  0.000  0.115  0.346  0.404  0.135
  0.333  0.359  0.000  0.000  0.307
  0.333  0.090  0.269  0.231  0.077
  0.000  0.346  0.115  0.135  0.404
  0.333  0.090  0.269  0.231  0.077
    occupations:
  0.996  0.000  0.000  0.000  0.000
  0.000  0.965  0.031  0.000 -0.031
  0.000  0.031  0.965  0.000  0.031
  0.000  0.000  0.000  0.996  0.000
  0.000 -0.031  0.031  0.000  0.965
atom    9   Tr[ns(na)] =   9.77619
    eigenvalues: 
  0.903  0.996  0.996  0.997  0.997
    eigenvectors:
  0.000  0.346  0.115  0.135  0.404
  0.333  0.000  0.359  0.307  0.000
  0.333  0.269  0.090  0.077  0.231
  0.000  0.115  0.346  0.404  0.135
  0.333  0.269  0.090  0.077  0.231
    occupations:
  0.996  0.000  0.000  0.000  0.000
  0.000  0.965  0.031  0.000 -0.031
  0.000  0.031  0.965  0.000  0.031
  0.000  0.000  0.000  0.996  0.000
  0.000 -0.031  0.031  0.000  0.965
atom   10   Tr[ns(na)] =   9.77620
    eigenvalues: 
  0.903  0.996  0.996  0.997  0.997
    eigenvectors:
  0.000  0.115  0.346  0.404  0.135
  0.333  0.359  0.000  0.000  0.307
  0.333  0.090  0.269  0.231  0.077
  0.000  0.346  0.115  0.135  0.404
  0.333  0.090  0.269  0.231  0.077
    occupations:
  0.996  0.000  0.000  0.000  0.000
  0.000  0.965  0.031  0.000 -0.031
  0.000  0.031  0.965  0.000  0.031
  0.000  0.000  0.000  0.996  0.000
  0.000 -0.031  0.031  0.000  0.965
atom   11   Tr[ns(na)] =   9.77619
    eigenvalues: 
  0.903  0.996  0.996  0.997  0.997
    eigenvectors:
  0.000  0.346  0.115  0.135  0.404
  0.333  0.000  0.359  0.307  0.000
  0.333  0.269  0.090  0.077  0.231
  0.000  0.115  0.346  0.404  0.135
  0.333  0.269  0.090  0.077  0.231
    occupations:
  0.996  0.000  0.000  0.000  0.000
  0.000  0.965  0.031  0.000 -0.031
  0.000  0.031  0.965  0.000  0.031
  0.000  0.000  0.000  0.996  0.000
  0.000 -0.031  0.031  0.000  0.965
atom   12   Tr[ns(na)] =   9.77620
    eigenvalues: 
  0.903  0.996  0.996  0.997  0.997
    eigenvectors:
  0.000  0.346  0.115  0.404  0.135
  0.333  0.000  0.359  0.000  0.307
  0.333  0.269  0.090  0.231  0.077
  0.000  0.115  0.346  0.135  0.404
  0.333  0.269  0.090  0.231  0.077
    occupations:
  0.996  0.000  0.000  0.000  0.000
  0.000  0.965 -0.031  0.000  0.031
  0.000 -0.031  0.965  0.000  0.031
  0.000  0.000  0.000  0.996  0.000
  0.000  0.031  0.031  0.000  0.965
atom   13   Tr[ns(na)] =   9.77620
    eigenvalues: 
  0.903  0.996  0.996  0.997  0.997
    eigenvectors:
  0.000  0.461  0.000  0.000  0.539
  0.333  0.090  0.269  0.231  0.077
  0.333  0.090  0.269  0.231  0.077
  0.000  0.000  0.461  0.539  0.000
  0.333  0.359  0.000  0.000  0.307
    occupations:
  0.996  0.000  0.000  0.000  0.000
  0.000  0.965 -0.031  0.000 -0.031
  0.000 -0.031  0.965  0.000 -0.031
  0.000  0.000  0.000  0.996  0.000
  0.000 -0.031 -0.031  0.000  0.965
atom   14   Tr[ns(na)] =   9.77620
    eigenvalues: 
  0.903  0.996  0.996  0.997  0.997
    eigenvectors:
  0.000  0.000  0.461  0.000  0.539
  0.333  0.269  0.090  0.231  0.077
  0.333  0.269  0.090  0.231  0.077
  0.000  0.461  0.000  0.539  0.000
  0.333  0.000  0.359  0.000  0.307
    occupations:
  0.996  0.000  0.000  0.000  0.000
  0.000  0.965 -0.031  0.000  0.031
  0.000 -0.031  0.965  0.000  0.031
  0.000  0.000  0.000  0.996  0.000
  0.000  0.031  0.031  0.000  0.965
atom   15   Tr[ns(na)] =   9.77619
    eigenvalues: 
  0.903  0.996  0.996  0.997  0.997
    eigenvectors:
  0.000  0.000  0.461  0.539  0.000
  0.333  0.269  0.090  0.077  0.231
  0.333  0.269  0.090  0.077  0.231
  0.000  0.461  0.000  0.000  0.539
  0.333  0.000  0.359  0.307  0.000
    occupations:
  0.996  0.000  0.000  0.000  0.000
  0.000  0.965 -0.031  0.000 -0.031
  0.000 -0.031  0.965  0.000 -0.031
  0.000  0.000  0.000  0.996  0.000
  0.000 -0.031 -0.031  0.000  0.965
atom   16   Tr[ns(na)] =   9.77620
    eigenvalues: 
  0.903  0.996  0.996  0.997  0.997
    eigenvectors:
  0.000  0.115  0.346  0.404  0.135
  0.333  0.090  0.269  0.231  0.077
  0.333  0.359  0.000  0.000  0.307
  0.000  0.346  0.115  0.135  0.404
  0.333  0.090  0.269  0.231  0.077
    occupations:
  0.996  0.000  0.000  0.000  0.000
  0.000  0.965  0.031  0.000  0.031
  0.000  0.031  0.965  0.000 -0.031
  0.000  0.000  0.000  0.996  0.000
  0.000  0.031 -0.031  0.000  0.965
atom   17   Tr[ns(na)] =   5.74454
    eigenvalues: 
  0.957  0.957  0.957
    eigenvectors:
  0.444  0.222  0.333
  0.550  0.117  0.333
  0.006  0.661  0.333
    occupations:
  0.957  0.000  0.000
  0.000  0.957  0.000
  0.000  0.000  0.957
atom   18   Tr[ns(na)] =   5.74454
    eigenvalues: 
  0.957  0.957  0.957
    eigenvectors:
  0.445  0.221  0.333
  0.549  0.117  0.333
  0.005  0.661  0.333
    occupations:
  0.957  0.000  0.000
  0.000  0.957  0.000
  0.000  0.000  0.957
atom   19   Tr[ns(na)] =   5.74455
    eigenvalues: 
  0.957  0.957  0.957
    eigenvectors:
  0.500  0.419  0.081
  0.000  0.161  0.839
  0.500  0.419  0.081
    occupations:
  0.957  0.000  0.000
  0.000  0.957  0.000
  0.000  0.000  0.957
atom   20   Tr[ns(na)] =   5.74455
    eigenvalues: 
  0.957  0.957  0.957
    eigenvectors:
  0.000  0.161  0.839
  0.500  0.419  0.081
  0.500  0.419  0.081
    occupations:
  0.957  0.000  0.000
  0.000  0.957  0.000
  0.000  0.000  0.957
atom   21   Tr[ns(na)] =   5.74455
    eigenvalues: 
  0.957  0.957  0.957
    eigenvectors:
  0.500  0.419  0.081
  0.000  0.161  0.839
  0.500  0.419  0.081
    occupations:
  0.957  0.000  0.000
  0.000  0.957  0.000
  0.000  0.000  0.957
atom   22   Tr[ns(na)] =   5.74455
    eigenvalues: 
  0.957  0.957  0.957
    eigenvectors:
  0.000  0.161  0.839
  0.500  0.419  0.081
  0.500  0.419  0.081
    occupations:
  0.957  0.000  0.000
  0.000  0.957  0.000
  0.000  0.000  0.957
atom   23   Tr[ns(na)] =   5.74455
    eigenvalues: 
  0.957  0.957  0.957
    eigenvectors:
  0.500  0.419  0.081
  0.500  0.419  0.081
  0.000  0.161  0.839
    occupations:
  0.957  0.000  0.000
  0.000  0.957  0.000
  0.000  0.000  0.957
atom   24   Tr[ns(na)] =   5.74455
    eigenvalues: 
  0.957  0.957  0.957
    eigenvectors:
  0.500  0.419  0.081
  0.500  0.419  0.081
  0.000  0.161  0.839
    occupations:
  0.957  0.000  0.000
  0.000  0.957  0.000
  0.000  0.000  0.957
N of occupied +U levels = 202.3754604
 --- exit write_ns ---

     Threshold (ethr) on eigenvalues was too large:
     Diagonalizing with lowered threshold

     Davidson diagonalization with overlap
     ethr =  2.01E-11,  avg # of iterations =  1.2

     total cpu time spent up to now is       27.3 secs

     total energy              =   -1657.02459832 Ry
     Harris-Foulkes estimate   =   -1657.02459834 Ry
     estimated scf accuracy    <       0.00000005 Ry

     iteration #  2     ecut=    30.00 Ry     beta=0.30
     Davidson diagonalization with overlap
     ethr =  2.02E-11,  avg # of iterations =  3.2

     total cpu time spent up to now is       41.3 secs

     End of self-consistent calculation
 --- enter write_ns ---
 LDA+U parameters:
U( 1)     =  0.00000000
alpha( 1) =  0.00000000
U( 2)     =  0.00000000
alpha( 2) =  0.00000000
U( 3)     =  0.00000000
alpha( 3) =  0.00000000
atom    1   Tr[ns(na)] =   9.77622
    eigenvalues: 
  0.903  0.996  0.996  0.997  0.997
    eigenvectors:
  0.000  0.298  0.163  0.150  0.389
  0.333  0.005  0.355  0.307  0.000
  0.333  0.302  0.057  0.069  0.239
  0.000  0.163  0.298  0.389  0.150
  0.333  0.232  0.127  0.085  0.222
    occupations:
  0.996  0.000  0.000  0.000  0.000
  0.000  0.965 -0.031  0.000  0.031
  0.000 -0.031  0.965  0.000  0.031
  0.000  0.000  0.000  0.996  0.000
  0.000  0.031  0.031  0.000  0.965
atom    2   Tr[ns(na)] =   9.77620
    eigenvalues: 
  0.903  0.996  0.996  0.997  0.997
    eigenvectors:
  0.000  0.115  0.346  0.404  0.135
  0.333  0.090  0.269  0.231  0.077
  0.333  0.359  0.000  0.000  0.307
  0.000  0.346  0.115  0.135  0.404
  0.333  0.090  0.269  0.231  0.077
    occupations:
  0.996  0.000  0.000  0.000  0.000
  0.000  0.965  0.031  0.000  0.031
  0.000  0.031  0.965  0.000 -0.031
  0.000  0.000  0.000  0.996  0.000
  0.000  0.031 -0.031  0.000  0.965
atom    3   Tr[ns(na)] =   9.77620
    eigenvalues: 
  0.903  0.996  0.996  0.997  0.997
    eigenvectors:
  0.000  0.461  0.000  0.000  0.539
  0.333  0.090  0.269  0.231  0.077
  0.333  0.090  0.269  0.231  0.077
  0.000  0.000  0.461  0.539  0.000
  0.333  0.359  0.000  0.000  0.307
    occupations:
  0.996  0.000  0.000  0.000  0.000
  0.000  0.965 -0.031  0.000 -0.031
  0.000 -0.031  0.965  0.000 -0.031
  0.000  0.000  0.000  0.996  0.000
  0.000 -0.031 -0.031  0.000  0.965
atom    4   Tr[ns(na)] =   9.77620
    eigenvalues: 
  0.903  0.996  0.996  0.997  0.997
    eigenvectors:
  0.000  0.115  0.346  0.404  0.135
  0.333  0.090  0.269  0.231  0.077
  0.333  0.359  0.000  0.000  0.307
  0.000  0.346  0.115  0.135  0.404
  0.333  0.090  0.269  0.231  0.077
    occupations:
  0.996  0.000  0.000  0.000  0.000
  0.000  0.965  0.031  0.000  0.031
  0.000  0.031  0.965  0.000 -0.031
  0.000  0.000  0.000  0.996  0.000
  0.000  0.031 -0.031  0.000  0.965
atom    5   Tr[ns(na)] =   9.77618
    eigenvalues: 
  0.903  0.996  0.996  0.997  0.997
    eigenvectors:
  0.000  0.346  0.115  0.135  0.404
  0.333  0.269  0.090  0.077  0.231
  0.333  0.000  0.359  0.307  0.000
  0.000  0.115  0.346  0.404  0.135
  0.333  0.269  0.090  0.077  0.231
    occupations:
  0.996  0.000  0.000  0.000  0.000
  0.000  0.965  0.031  0.000  0.031
  0.000  0.031  0.965  0.000 -0.031
  0.000  0.000  0.000  0.996  0.000
  0.000  0.031 -0.031  0.000  0.965
atom    6   Tr[ns(na)] =   9.77618
    eigenvalues: 
  0.903  0.996  0.996  0.997  0.997
    eigenvectors:
  0.000  0.000  0.461  0.539  0.000
  0.333  0.269  0.090  0.077  0.231
  0.333  0.269  0.090  0.077  0.231
  0.000  0.461  0.000  0.000  0.539
  0.333  0.000  0.359  0.307  0.000
    occupations:
  0.996  0.000  0.000  0.000  0.000
  0.000  0.965 -0.031  0.000 -0.031
  0.000 -0.031  0.965  0.000 -0.031
  0.000  0.000  0.000  0.996  0.000
  0.000 -0.031 -0.031  0.000  0.965
atom    7   Tr[ns(na)] =   9.77619
    eigenvalues: 
  0.903  0.996  0.996  0.997  0.997
    eigenvectors:
  0.000  0.115  0.346  0.404  0.135
  0.333  0.090  0.269  0.231  0.077
  0.333  0.359  0.000  0.000  0.307
  0.000  0.346  0.115  0.135  0.404
  0.333  0.090  0.269  0.231  0.077
    occupations:
  0.996  0.000  0.000  0.000  0.000
  0.000  0.965 -0.031  0.000  0.031
  0.000 -0.031  0.965  0.000  0.031
  0.000  0.000  0.000  0.996  0.000
  0.000  0.031  0.031  0.000  0.965
atom    8   Tr[ns(na)] =   9.77618
    eigenvalues: 
  0.903  0.996  0.996  0.997  0.997
    eigenvectors:
  0.000  0.346  0.115  0.135  0.404
  0.333  0.000  0.359  0.307  0.000
  0.333  0.269  0.090  0.077  0.231
  0.000  0.115  0.346  0.404  0.135
  0.333  0.269  0.090  0.077  0.231
    occupations:
  0.996  0.000  0.000  0.000  0.000
  0.000  0.965  0.031  0.000 -0.031
  0.000  0.031  0.965  0.000  0.031
  0.000  0.000  0.000  0.996  0.000
  0.000 -0.031  0.031  0.000  0.965
atom    9   Tr[ns(na)] =   9.77620
    eigenvalues: 
  0.903  0.996  0.996  0.997  0.997
    eigenvectors:
  0.000  0.115  0.346  0.404  0.135
  0.333  0.359  0.000  0.000  0.307
  0.333  0.090  0.269  0.231  0.077
  0.000  0.346  0.115  0.135  0.404
  0.333  0.090  0.269  0.231  0.077
    occupations:
  0.996  0.000  0.000  0.000  0.000
  0.000  0.965  0.031  0.000 -0.031
  0.000  0.031  0.965  0.000  0.031
  0.000  0.000  0.000  0.996  0.000
  0.000 -0.031  0.031  0.000  0.965
atom   10   Tr[ns(na)] =   9.77618
    eigenvalues: 
  0.903  0.996  0.996  0.997  0.997
    eigenvectors:
  0.000  0.346  0.115  0.135  0.404
  0.333  0.000  0.359  0.307  0.000
  0.333  0.269  0.090  0.077  0.231
  0.000  0.115  0.346  0.404  0.135
  0.333  0.269  0.090  0.077  0.231
    occupations:
  0.996  0.000  0.000  0.000  0.000
  0.000  0.965  0.031  0.000 -0.031
  0.000  0.031  0.965  0.000  0.031
  0.000  0.000  0.000  0.996  0.000
  0.000 -0.031  0.031  0.000  0.965
atom   11   Tr[ns(na)] =   9.77620
    eigenvalues: 
  0.903  0.996  0.996  0.997  0.997
    eigenvectors:
  0.000  0.115  0.346  0.404  0.135
  0.333  0.359  0.000  0.000  0.307
  0.333  0.090  0.269  0.231  0.077
  0.000  0.346  0.115  0.135  0.404
  0.333  0.090  0.269  0.231  0.077
    occupations:
  0.996  0.000  0.000  0.000  0.000
  0.000  0.965  0.031  0.000 -0.031
  0.000  0.031  0.965  0.000  0.031
  0.000  0.000  0.000  0.996  0.000
  0.000 -0.031  0.031  0.000  0.965
atom   12   Tr[ns(na)] =   9.77619
    eigenvalues: 
  0.903  0.996  0.996  0.997  0.997
    eigenvectors:
  0.000  0.115  0.346  0.404  0.135
  0.333  0.359  0.000  0.000  0.307
  0.333  0.090  0.269  0.231  0.077
  0.000  0.346  0.115  0.135  0.404
  0.333  0.090  0.269  0.231  0.077
    occupations:
  0.996  0.000  0.000  0.000  0.000
  0.000  0.965 -0.031  0.000  0.031
  0.000 -0.031  0.965  0.000  0.031
  0.000  0.000  0.000  0.996  0.000
  0.000  0.031  0.031  0.000  0.965
atom   13   Tr[ns(na)] =   9.77618
    eigenvalues: 
  0.903  0.996  0.996  0.997  0.997
    eigenvectors:
  0.000  0.000  0.461  0.539  0.000
  0.333  0.269  0.090  0.077  0.231
  0.333  0.269  0.090  0.077  0.231
  0.000  0.461  0.000  0.000  0.539
  0.333  0.000  0.359  0.307  0.000
    occupations:
  0.996  0.000  0.000  0.000  0.000
  0.000  0.965 -0.031  0.000 -0.031
  0.000 -0.031  0.965  0.000 -0.031
  0.000  0.000  0.000  0.996  0.000
  0.000 -0.031 -0.031  0.000  0.965
atom   14   Tr[ns(na)] =   9.77619
    eigenvalues: 
  0.903  0.996  0.996  0.997  0.997
    eigenvectors:
  0.000  0.461  0.000  0.000  0.539
  0.333  0.090  0.269  0.231  0.077
  0.333  0.090  0.269  0.231  0.077
  0.000  0.000  0.461  0.539  0.000
  0.333  0.359  0.000  0.000  0.307
    occupations:
  0.996  0.000  0.000  0.000  0.000
  0.000  0.965 -0.031  0.000  0.031
  0.000 -0.031  0.965  0.000  0.031
  0.000  0.000  0.000  0.996  0.000
  0.000  0.031  0.031  0.000  0.965
atom   15   Tr[ns(na)] =   9.77620
    eigenvalues: 
  0.903  0.996  0.996  0.997  0.997
    eigenvectors:
  0.000  0.461  0.000  0.000  0.539
  0.333  0.090  0.269  0.231  0.077
  0.333  0.090  0.269  0.231  0.077
  0.000  0.000  0.461  0.539  0.000
  0.333  0.359  0.000  0.000  0.307
    occupations:
  0.996  0.000  0.000  0.000  0.000
  0.000  0.965 -0.031  0.000 -0.031
  0.000 -0.031  0.965  0.000 -0.031
  0.000  0.000  0.000  0.996  0.000
  0.000 -0.031 -0.031  0.000  0.965
atom   16   Tr[ns(na)] =   9.77618
    eigenvalues: 
  0.903  0.996  0.996  0.997  0.997
    eigenvectors:
  0.000  0.346  0.115  0.135  0.404
  0.333  0.269  0.090  0.077  0.231
  0.333  0.000  0.359  0.307  0.000
  0.000  0.115  0.346  0.404  0.135
  0.333  0.269  0.090  0.077  0.231
    occupations:
  0.996  0.000  0.000  0.000  0.000
  0.000  0.965  0.031  0.000  0.031
  0.000  0.031  0.965  0.000 -0.031
  0.000  0.000  0.000  0.996  0.000
  0.000  0.031 -0.031  0.000  0.965
atom   17   Tr[ns(na)] =   5.74459
    eigenvalues: 
  0.957  0.957  0.957
    eigenvectors:
  0.333  0.467  0.200
  0.333  0.531  0.136
  0.333  0.002  0.665
    occupations:
  0.957  0.000  0.000
  0.000  0.957  0.000
  0.000  0.000  0.957
atom   18   Tr[ns(na)] =   5.74459
    eigenvalues: 
  0.957  0.957  0.957
    eigenvectors:
  0.333  0.464  0.203
  0.333  0.534  0.133
  0.333  0.002  0.664
    occupations:
  0.957  0.000  0.000
  0.000  0.957  0.000
  0.000  0.000  0.957
atom   19   Tr[ns(na)] =   5.74457
    eigenvalues: 
  0.957  0.957  0.957
    eigenvectors:
  0.076  0.424  0.500
  0.848  0.152  0.000
  0.076  0.424  0.500
    occupations:
  0.957  0.000  0.000
  0.000  0.957  0.000
  0.000  0.000  0.957
atom   20   Tr[ns(na)] =   5.74457
    eigenvalues: 
  0.957  0.957  0.957
    eigenvectors:
  0.848  0.152  0.000
  0.076  0.424  0.500
  0.076  0.424  0.500
    occupations:
  0.957  0.000  0.000
  0.000  0.957  0.000
  0.000  0.000  0.957
atom   21   Tr[ns(na)] =   5.74457
    eigenvalues: 
  0.957  0.957  0.957
    eigenvectors:
  0.076  0.424  0.500
  0.848  0.152  0.000
  0.076  0.424  0.500
    occupations:
  0.957  0.000  0.000
  0.000  0.957  0.000
  0.000  0.000  0.957
atom   22   Tr[ns(na)] =   5.74457
    eigenvalues: 
  0.957  0.957  0.957
    eigenvectors:
  0.848  0.152  0.000
  0.076  0.424  0.500
  0.076  0.424  0.500
    occupations:
  0.957  0.000  0.000
  0.000  0.957  0.000
  0.000  0.000  0.957
atom   23   Tr[ns(na)] =   5.74457
    eigenvalues: 
  0.957  0.957  0.957
    eigenvectors:
  0.076  0.424  0.500
  0.076  0.424  0.500
  0.848  0.152  0.000
    occupations:
  0.957  0.000  0.000
  0.000  0.957  0.000
  0.000  0.000  0.957
atom   24   Tr[ns(na)] =   5.74457
    eigenvalues: 
  0.957  0.957  0.957
    eigenvectors:
  0.076  0.424  0.500
  0.076  0.424  0.500
  0.848  0.152  0.000
    occupations:
  0.957  0.000  0.000
  0.000  0.957  0.000
  0.000  0.000  0.957
N of occupied +U levels = 202.3756591
 --- exit write_ns ---

          k = 0.0000 0.0000 0.0000 (  6099 PWs)   bands (ev):

   -11.0922 -10.7486 -10.7485 -10.7484 -10.7484 -10.7484 -10.7484 -10.4509
     1.6678   1.6678   1.6678   1.6678   1.6678   1.6679   1.7601   1.7601
     1.7601   2.7412   2.7412   2.7412   2.7412   2.7413   2.7413   3.3485
     3.3486   3.3486   3.3486   3.3486   3.3486   3.9956   4.0891   4.0891
     4.0891   5.6250   5.6250   5.6739   5.6739   5.6739   5.6740   5.6740
     5.6740   5.7458   5.7458   5.7458   5.8835   5.8835   5.8836   5.8836
     5.8836   5.8836   6.2974   6.2974   6.2974   6.2974   6.2974   6.2975
     6.3053   6.3053   6.3053   6.3054   6.3054   6.3054   6.3716   6.3716
     6.3716   6.3716   6.3716   6.3716   6.5158   6.5158   6.6192   6.6192
     6.6192   6.6192   6.6193   6.6193   6.6315   6.6315   6.6315   6.6747
     6.6747   6.6747   6.6818   6.6818   6.6818   6.6818   6.6818   6.6818
     6.9907   6.9907   6.9907   6.9907   6.9907   6.9907   6.9954   6.9954
     6.9954   7.2264   7.2264   7.2264   7.2264   7.2264   7.2265   7.8161
     7.8161   7.8161   7.8161   7.8161   7.8161   8.4052   8.4052   8.4052

          k = 0.0000 0.2500-0.2500 (  6164 PWs)   bands (ev):

   -10.9246 -10.9245 -10.8514 -10.8514 -10.6446 -10.6446 -10.6029 -10.6028
     1.7236   1.7237   1.7831   1.7831   2.0203   2.0203   2.0779   2.0779
     2.0934   2.0934   2.4235   2.4235   2.6812   2.6812   3.1234   3.1234
     3.1753   3.1753   3.2629   3.2629   3.3338   3.3339   3.6514   3.6515
     4.8282   4.8282   5.4177   5.4177   5.5579   5.5579   5.7612   5.7612
     5.7842   5.7843   5.8236   5.8237   6.0313   6.0314   6.0550   6.0550
     6.1026   6.1026   6.1423   6.1423   6.2592   6.2592   6.2811   6.2811
     6.3370   6.3371   6.3658   6.3658   6.4205   6.4205   6.4220   6.4221
     6.4395   6.4395   6.4455   6.4455   6.4628   6.4628   6.5239   6.5239
     6.5402   6.5403   6.6116   6.6116   6.7154   6.7154   6.7164   6.7164
     6.7571   6.7571   6.7705   6.7705   6.7887   6.7887   6.8105   6.8105
     6.8110   6.8111   6.8242   6.8242   6.9235   6.9235   6.9559   6.9559
     6.9881   6.9881   7.2192   7.2192   7.2681   7.2681   7.3802   7.3802
     7.7343   7.7343   7.8913   7.8913   7.8979   7.8979   8.1546   8.1547

          k = 0.0000 0.0000-0.5000 (  6098 PWs)   bands (ev):

   -10.9360 -10.7674 -10.7674 -10.7673 -10.7673 -10.7673 -10.7673 -10.5190
     1.8559   1.8559   1.8559   2.3419   2.3419   2.3419   2.3419   2.3419
     2.3419   2.3992   2.3992   2.3992   2.3992   2.3992   2.3992   3.0134
     3.0134   3.0134   3.0134   3.0134   3.0134   3.2573   3.2573   3.2573
     5.3201   5.3202   5.3202   5.3202   5.3202   5.3202   5.4639   5.4639
     5.4639   6.0033   6.0033   6.0383   6.0383   6.0384   6.0384   6.0384
     6.0384   6.2530   6.2530   6.2530   6.2530   6.2530   6.2530   6.3201
     6.3201   6.3201   6.4552   6.4552   6.4552   6.4552   6.4552   6.4552
     6.4682   6.4682   6.4682   6.4682   6.4682   6.4682   6.4871   6.4871
     6.4871   6.4871   6.4871   6.4871   6.5707   6.5707   6.5707   6.6545
     6.6545   6.6545   6.6545   6.6545   6.6545   6.7033   6.7033   6.7033
     6.8650   6.8650   6.8651   6.8651   6.8651   6.8651   6.9510   6.9510
     7.2414   7.2414   7.2414   7.2414   7.2414   7.2414   7.4037   7.8999
     7.8999   7.8999   8.0565   8.0565   8.0565   8.0566   8.0566   8.0566

          k = 0.0000-0.2500-0.2500 (  6164 PWs)   bands (ev):

   -10.9246 -10.9246 -10.8515 -10.8514 -10.6446 -10.6445 -10.6028 -10.6028
     1.7236   1.7236   1.7831   1.7831   2.0203   2.0203   2.0779   2.0779
     2.0934   2.0934   2.4235   2.4235   2.6812   2.6812   3.1234   3.1235
     3.1752   3.1753   3.2629   3.2629   3.3338   3.3338   3.6515   3.6515
     4.8282   4.8282   5.4177   5.4177   5.5579   5.5579   5.7612   5.7612
     5.7842   5.7843   5.8237   5.8237   6.0314   6.0314   6.0550   6.0550
     6.1025   6.1026   6.1423   6.1423   6.2592   6.2592   6.2811   6.2812
     6.3370   6.3371   6.3658   6.3658   6.4205   6.4205   6.4220   6.4220
     6.4395   6.4395   6.4455   6.4455   6.4628   6.4629   6.5239   6.5239
     6.5402   6.5402   6.6116   6.6116   6.7154   6.7154   6.7164   6.7165
     6.7571   6.7571   6.7705   6.7705   6.7887   6.7887   6.8105   6.8105
     6.8110   6.8111   6.8242   6.8242   6.9235   6.9235   6.9559   6.9559
     6.9881   6.9881   7.2192   7.2192   7.2681   7.2681   7.3801   7.3802
     7.7343   7.7343   7.8913   7.8913   7.8978   7.8979   8.1546   8.1547

!    total energy              =   -1657.02459833 Ry
     Harris-Foulkes estimate   =   -1657.02459833 Ry
     estimated scf accuracy    <          7.8E-09 Ry

     The total energy is the sum of the following terms:

     one-electron contribution =    -562.95235128 Ry
     hartree contribution      =     504.00767563 Ry
     xc contribution           =    -286.11444238 Ry
     ewald contribution        =   -1311.96548030 Ry
     Hubbard energy            =       0.00000000 Ry

     convergence has been achieved in   2 iterations

     Writing output data file cu2o.save
 
     init_run     :      2.72s CPU      3.93s WALL (       1 calls)
     electrons    :     35.42s CPU     37.25s WALL (       1 calls)

     Called by init_run:
     wfcinit      :      0.48s CPU      1.42s WALL (       1 calls)
     potinit      :      0.27s CPU      0.35s WALL (       1 calls)

     Called by electrons:
     c_bands      :     24.40s CPU     25.46s WALL (       3 calls)
     sum_band     :      7.66s CPU      7.93s WALL (       3 calls)
     v_of_rho     :      0.62s CPU      0.75s WALL (       3 calls)
     newd         :      4.17s CPU      4.62s WALL (       3 calls)
     mix_rho      :      0.05s CPU      0.05s WALL (       3 calls)

     Called by c_bands:
     init_us_2    :      0.20s CPU      0.22s WALL (      28 calls)
     cegterg      :     23.97s CPU     24.85s WALL (      12 calls)

     Called by *egterg:
     h_psi        :     15.53s CPU     15.64s WALL (      39 calls)
     s_psi        :      1.64s CPU      1.65s WALL (      43 calls)
     g_psi        :      0.07s CPU      0.07s WALL (      27 calls)
     cdiaghg      :      2.47s CPU      2.49s WALL (      31 calls)

     Called by h_psi:
     add_vuspsi   :      1.44s CPU      1.45s WALL (      39 calls)

     General routines
     calbec       :      2.94s CPU      2.98s WALL (     106 calls)
     fft          :      0.57s CPU      0.67s WALL (      46 calls)
     ffts         :      0.02s CPU      0.02s WALL (       6 calls)
     fftw         :      9.28s CPU      9.23s WALL (    8194 calls)
     interpolate  :      0.10s CPU      0.13s WALL (       6 calls)
     davcio       :      0.00s CPU      1.27s WALL (      80 calls)
 
     Parallel routines
     fft_scatter  :      3.12s CPU      3.11s WALL (    8246 calls)
     EXX routines
 
     PWSCF        :    38.35s CPU        41.46s WALL

 
   This run was terminated on:  21:38: 4  17Jun2012            

=------------------------------------------------------------------------------=
   JOB DONE.
=------------------------------------------------------------------------------=
