
     Program PWSCF v.5.0        starts on 17Jun2012 at 21:38: 5 

     This program is part of the open-source Quantum ESPRESSO suite
     for quantum simulation of materials; please cite
         "P. Giannozzi et al., J. Phys.:Condens. Matter 21 395502 (2009);
          URL http://www.quantum-espresso.org", 
     in publications or presentations arising from this work. More details at
     http://www.quantum-espresso.org/quote.php

     Parallel version (MPI), running on     4 processors
     R & G space division:  proc/pool =    4

     Current dimensions of program PWSCF are:
     Max number of different atomic species (ntypx) = 10
     Max number of k-points (npk) =  40000
     Max angular momentum in pseudopotentials (lmaxx) =  3
     Waiting for input...
     Reading input from standard input
               file O.pbe-rrkjus.UPF: wavefunction(s)  2S renormalized

     Subspace diagonalization in iterative solution of the eigenvalue problem:
     a serial algorithm will be used

 
     Parallelization info
     --------------------
     sticks:   dense  smooth     PW     G-vecs:    dense   smooth      PW
     Min        1137     455    131                48485    12292    1908
     Max        1138     456    132                48486    12300    1909
     Sum        4549    1821    527               193941    49181    7635
 


     bravais-lattice index     =            0
     lattice parameter (alat)  =       8.2100  a.u.
     unit-cell volume          =    2213.5506 (a.u.)^3
     number of atoms/cell      =           24
     number of atomic types    =            3
     number of electrons       =       224.00
     number of Kohn-Sham states=          112
     kinetic-energy cutoff     =      30.0000  Ry
     charge density cutoff     =     300.0000  Ry
     convergence threshold     =      1.0E-08
     mixing beta               =       0.3000
     number of iterations used =            8  plain     mixing
     Exchange-correlation      =  SLA  PW   PBE  PBE ( 1 4 3 4 0)
     EXX-fraction              =        0.00

     celldm(1)=   8.210000  celldm(2)=   0.000000  celldm(3)=   0.000000
     celldm(4)=   0.000000  celldm(5)=   0.000000  celldm(6)=   0.000000

     crystal axes: (cart. coord. in units of alat)
               a(1) = (   1.000000   1.000000   1.000000 )  
               a(2) = (  -1.000000   1.000000   1.000000 )  
               a(3) = (  -1.000000  -1.000000   1.000000 )  

     reciprocal axes: (cart. coord. in units 2 pi/alat)
               b(1) = (  0.500000  0.000000  0.500000 )  
               b(2) = ( -0.500000  0.500000  0.000000 )  
               b(3) = (  0.000000 -0.500000  0.500000 )  


     PseudoPot. # 1 for Cu read from file:
     ../pseudo/Cu.pbe-d-rrkjus.UPF
     MD5 check sum: 855c9c66b119533e70b4be5d3ca221fe
     Pseudo is Ultrasoft, Zval = 11.0
     Generated by new atomic code, or converted to UPF format
     Using radial grid of  899 points,  3 beta functions with: 
                l(1) =   2
                l(2) =   2
                l(3) =   1
     Q(r) pseudized with 0 coefficients 


     PseudoPot. # 2 for Cu read from file:
     ../pseudo/Cu.pbe-d-rrkjus.UPF
     MD5 check sum: 855c9c66b119533e70b4be5d3ca221fe
     Pseudo is Ultrasoft, Zval = 11.0
     Generated by new atomic code, or converted to UPF format
     Using radial grid of  899 points,  3 beta functions with: 
                l(1) =   2
                l(2) =   2
                l(3) =   1
     Q(r) pseudized with 0 coefficients 


     PseudoPot. # 3 for O  read from file:
     ../pseudo/O.pbe-rrkjus.UPF
     MD5 check sum: 390ba29e75625707450f3bd3f0eb6be9
     Pseudo is Ultrasoft, Zval =  6.0
     Generated by new atomic code, or converted to UPF format
     Using radial grid of 1269 points,  4 beta functions with: 
                l(1) =   0
                l(2) =   0
                l(3) =   1
                l(4) =   1
     Q(r) pseudized with 0 coefficients 


     atomic species   valence    mass     pseudopotential
        Cu1           11.00     1.00000     Cu( 1.00)
        Cu            11.00     1.00000     Cu( 1.00)
        O              6.00     1.00000     O ( 1.00)
 -----
     simplified LDA+U calculation, Hubbard_lmax = 2
     atomic species  L   Hubbard U  Hubbard alpha
        Cu1          2    0.000000    0.020000
        Cu           2    0.000000    0.000000
        O            1    0.000000    0.000000
 -----

     12 Sym. Ops., with inversion, found



   Cartesian axes

     site n.     atom                  positions (alat units)
         1           Cu1 tau(   1) = (   0.0000000   0.0000000   0.0000000  )
         2           Cu  tau(   2) = (  -1.0000000   0.5000000   0.5000000  )
         3           Cu  tau(   3) = (  -0.5000000  -0.5000000   0.0000000  )
         4           Cu  tau(   4) = (   0.0000000   0.5000000   0.5000000  )
         5           Cu  tau(   5) = (  -1.0000000  -0.5000000   0.5000000  )
         6           Cu  tau(   6) = (  -1.5000000  -0.5000000   1.0000000  )
         7           Cu  tau(   7) = (   0.0000000   1.0000000   1.0000000  )
         8           Cu  tau(   8) = (  -0.5000000   0.0000000   0.5000000  )
         9           Cu  tau(   9) = (  -0.5000000   0.0000000   1.5000000  )
        10           Cu  tau(  10) = (  -1.5000000   0.0000000   1.5000000  )
        11           Cu  tau(  11) = (  -0.5000000   1.0000000   1.5000000  )
        12           Cu  tau(  12) = (  -1.0000000   0.0000000   1.0000000  )
        13           Cu  tau(  13) = (  -0.5000000   0.5000000   1.0000000  )
        14           Cu  tau(  14) = (   0.0000000   0.0000000   1.0000000  )
        15           Cu  tau(  15) = (  -0.5000000  -0.5000000   1.0000000  )
        16           Cu  tau(  16) = (  -1.0000000   0.5000000   1.5000000  )
        17           O   tau(  17) = (  -0.2500000  -0.2500000  -0.2500000  )
        18           O   tau(  18) = (   0.2500000   0.2500000   0.2500000  )
        19           O   tau(  19) = (  -0.7500000   0.2500000   0.2500000  )
        20           O   tau(  20) = (  -0.7500000  -0.7500000   0.2500000  )
        21           O   tau(  21) = (  -0.2500000   0.7500000   0.7500000  )
        22           O   tau(  22) = (  -0.2500000  -0.2500000   0.7500000  )
        23           O   tau(  23) = (  -1.2500000  -0.2500000   0.7500000  )
        24           O   tau(  24) = (  -0.7500000   0.2500000   1.2500000  )

     number of k points=     4
                       cart. coord. in units 2pi/alat
        k(    1) = (   0.0000000   0.0000000   0.0000000), wk =   0.2500000
        k(    2) = (   0.0000000   0.2500000  -0.2500000), wk =   0.7500000
        k(    3) = (   0.0000000   0.0000000  -0.5000000), wk =   0.2500000
        k(    4) = (   0.0000000  -0.2500000  -0.2500000), wk =   0.7500000

     Dense  grid:   193941 G-vectors     FFT dimensions: (  80,  80,  80)

     Smooth grid:    49181 G-vectors     FFT dimensions: (  50,  50,  50)

     Largest allocated arrays     est. size (Mb)     dimensions
        Kohn-Sham Wavefunctions         2.63 Mb     (   1538,  112)
        Atomic wavefunctions            3.00 Mb     (   1538,  128)
        NL pseudopotentials             6.38 Mb     (   1538,  272)
        Each V/rho on FFT grid          1.95 Mb     ( 128000)
        Each G-vector array             0.37 Mb     (  48486)
        G-vector shells                 0.01 Mb     (    939)
     Largest temporary arrays     est. size (Mb)     dimensions
        Auxiliary wavefunctions        10.51 Mb     (   1538,  448)
        Each subspace H/S matrix        3.06 Mb     ( 448, 448)
        Each <psi_i|beta_j> matrix      0.46 Mb     (    272,  112)
        Arrays for rho mixing          15.62 Mb     ( 128000,   8)

     The initial density is read from file :
     ./temp/cu2o.save/charge-density.dat

     Number of +U iterations with fixed ns =  0
     Starting occupations:
 --- enter write_ns ---
 LDA+U parameters:
U( 1)     =  0.00000000
alpha( 1) =  0.02000000
U( 2)     =  0.00000000
alpha( 2) =  0.00000000
U( 3)     =  0.00000000
alpha( 3) =  0.00000000
atom    1   Tr[ns(na)] =   9.77621
    eigenvalues: 
  0.903  0.996  0.996  0.997  0.997
    eigenvectors:
  0.000  0.338  0.123  0.210  0.329
  0.333  0.000  0.359  0.301  0.007
  0.333  0.275  0.084  0.041  0.267
  0.000  0.123  0.338  0.329  0.210
  0.333  0.263  0.096  0.120  0.188
    occupations:
  0.996  0.000  0.000  0.000  0.000
  0.000  0.965 -0.031  0.000  0.031
  0.000 -0.031  0.965  0.000  0.031
  0.000  0.000  0.000  0.996  0.000
  0.000  0.031  0.031  0.000  0.965
atom    2   Tr[ns(na)] =   9.77620
    eigenvalues: 
  0.903  0.996  0.996  0.997  0.997
    eigenvectors:
  0.000  0.115  0.346  0.404  0.135
  0.333  0.090  0.269  0.231  0.077
  0.333  0.359  0.000  0.000  0.308
  0.000  0.346  0.115  0.135  0.404
  0.333  0.090  0.269  0.231  0.077
    occupations:
  0.996  0.000  0.000  0.000  0.000
  0.000  0.965  0.031  0.000  0.031
  0.000  0.031  0.965  0.000 -0.031
  0.000  0.000  0.000  0.996  0.000
  0.000  0.031 -0.031  0.000  0.965
atom    3   Tr[ns(na)] =   9.77620
    eigenvalues: 
  0.903  0.996  0.996  0.997  0.997
    eigenvectors:
  0.000  0.461  0.000  0.000  0.539
  0.333  0.090  0.269  0.231  0.077
  0.333  0.090  0.269  0.231  0.077
  0.000  0.000  0.461  0.539  0.000
  0.333  0.359  0.000  0.000  0.308
    occupations:
  0.996  0.000  0.000  0.000  0.000
  0.000  0.965 -0.031  0.000 -0.031
  0.000 -0.031  0.965  0.000 -0.031
  0.000  0.000  0.000  0.996  0.000
  0.000 -0.031 -0.031  0.000  0.965
atom    4   Tr[ns(na)] =   9.77620
    eigenvalues: 
  0.903  0.996  0.996  0.997  0.997
    eigenvectors:
  0.000  0.115  0.346  0.404  0.135
  0.333  0.090  0.269  0.231  0.077
  0.333  0.359  0.000  0.000  0.308
  0.000  0.346  0.115  0.135  0.404
  0.333  0.090  0.269  0.231  0.077
    occupations:
  0.996  0.000  0.000  0.000  0.000
  0.000  0.965  0.031  0.000  0.031
  0.000  0.031  0.965  0.000 -0.031
  0.000  0.000  0.000  0.996  0.000
  0.000  0.031 -0.031  0.000  0.965
atom    5   Tr[ns(na)] =   9.77620
    eigenvalues: 
  0.903  0.996  0.996  0.997  0.997
    eigenvectors:
  0.000  0.346  0.115  0.135  0.404
  0.333  0.269  0.090  0.077  0.231
  0.333  0.000  0.359  0.308  0.000
  0.000  0.115  0.346  0.404  0.135
  0.333  0.269  0.090  0.077  0.231
    occupations:
  0.996  0.000  0.000  0.000  0.000
  0.000  0.965  0.031  0.000  0.031
  0.000  0.031  0.965  0.000 -0.031
  0.000  0.000  0.000  0.996  0.000
  0.000  0.031 -0.031  0.000  0.965
atom    6   Tr[ns(na)] =   9.77620
    eigenvalues: 
  0.903  0.996  0.996  0.997  0.997
    eigenvectors:
  0.000  0.000  0.461  0.539  0.000
  0.333  0.269  0.090  0.077  0.231
  0.333  0.269  0.090  0.077  0.231
  0.000  0.461  0.000  0.000  0.539
  0.333  0.000  0.359  0.308  0.000
    occupations:
  0.996  0.000  0.000  0.000  0.000
  0.000  0.965 -0.031  0.000 -0.031
  0.000 -0.031  0.965  0.000 -0.031
  0.000  0.000  0.000  0.996  0.000
  0.000 -0.031 -0.031  0.000  0.965
atom    7   Tr[ns(na)] =   9.77620
    eigenvalues: 
  0.903  0.996  0.996  0.997  0.997
    eigenvectors:
  0.000  0.115  0.346  0.135  0.404
  0.333  0.090  0.269  0.077  0.231
  0.333  0.359  0.000  0.308  0.000
  0.000  0.346  0.115  0.404  0.135
  0.333  0.090  0.269  0.077  0.231
    occupations:
  0.996  0.000  0.000  0.000  0.000
  0.000  0.965 -0.031  0.000  0.031
  0.000 -0.031  0.965  0.000  0.031
  0.000  0.000  0.000  0.996  0.000
  0.000  0.031  0.031  0.000  0.965
atom    8   Tr[ns(na)] =   9.77620
    eigenvalues: 
  0.903  0.996  0.996  0.997  0.997
    eigenvectors:
  0.000  0.346  0.115  0.135  0.404
  0.333  0.000  0.359  0.308  0.000
  0.333  0.269  0.090  0.077  0.231
  0.000  0.115  0.346  0.404  0.135
  0.333  0.269  0.090  0.077  0.231
    occupations:
  0.996  0.000  0.000  0.000  0.000
  0.000  0.965  0.031  0.000 -0.031
  0.000  0.031  0.965  0.000  0.031
  0.000  0.000  0.000  0.996  0.000
  0.000 -0.031  0.031  0.000  0.965
atom    9   Tr[ns(na)] =   9.77620
    eigenvalues: 
  0.903  0.996  0.996  0.997  0.997
    eigenvectors:
  0.000  0.115  0.346  0.404  0.135
  0.333  0.359  0.000  0.000  0.308
  0.333  0.090  0.269  0.231  0.077
  0.000  0.346  0.115  0.135  0.404
  0.333  0.090  0.269  0.231  0.077
    occupations:
  0.996  0.000  0.000  0.000  0.000
  0.000  0.965  0.031  0.000 -0.031
  0.000  0.031  0.965  0.000  0.031
  0.000  0.000  0.000  0.996  0.000
  0.000 -0.031  0.031  0.000  0.965
atom   10   Tr[ns(na)] =   9.77620
    eigenvalues: 
  0.903  0.996  0.996  0.997  0.997
    eigenvectors:
  0.000  0.346  0.115  0.135  0.404
  0.333  0.000  0.359  0.308  0.000
  0.333  0.269  0.090  0.077  0.231
  0.000  0.115  0.346  0.404  0.135
  0.333  0.269  0.090  0.077  0.231
    occupations:
  0.996  0.000  0.000  0.000  0.000
  0.000  0.965  0.031  0.000 -0.031
  0.000  0.031  0.965  0.000  0.031
  0.000  0.000  0.000  0.996  0.000
  0.000 -0.031  0.031  0.000  0.965
atom   11   Tr[ns(na)] =   9.77620
    eigenvalues: 
  0.903  0.996  0.996  0.997  0.997
    eigenvectors:
  0.000  0.115  0.346  0.404  0.135
  0.333  0.359  0.000  0.000  0.308
  0.333  0.090  0.269  0.231  0.077
  0.000  0.346  0.115  0.135  0.404
  0.333  0.090  0.269  0.231  0.077
    occupations:
  0.996  0.000  0.000  0.000  0.000
  0.000  0.965  0.031  0.000 -0.031
  0.000  0.031  0.965  0.000  0.031
  0.000  0.000  0.000  0.996  0.000
  0.000 -0.031  0.031  0.000  0.965
atom   12   Tr[ns(na)] =   9.77620
    eigenvalues: 
  0.903  0.996  0.996  0.997  0.997
    eigenvectors:
  0.000  0.115  0.346  0.135  0.404
  0.333  0.359  0.000  0.308  0.000
  0.333  0.090  0.269  0.077  0.231
  0.000  0.346  0.115  0.404  0.135
  0.333  0.090  0.269  0.077  0.231
    occupations:
  0.996  0.000  0.000  0.000  0.000
  0.000  0.965 -0.031  0.000  0.031
  0.000 -0.031  0.965  0.000  0.031
  0.000  0.000  0.000  0.996  0.000
  0.000  0.031  0.031  0.000  0.965
atom   13   Tr[ns(na)] =   9.77620
    eigenvalues: 
  0.903  0.996  0.996  0.997  0.997
    eigenvectors:
  0.000  0.000  0.461  0.539  0.000
  0.333  0.269  0.090  0.077  0.231
  0.333  0.269  0.090  0.077  0.231
  0.000  0.461  0.000  0.000  0.539
  0.333  0.000  0.359  0.308  0.000
    occupations:
  0.996  0.000  0.000  0.000  0.000
  0.000  0.965 -0.031  0.000 -0.031
  0.000 -0.031  0.965  0.000 -0.031
  0.000  0.000  0.000  0.996  0.000
  0.000 -0.031 -0.031  0.000  0.965
atom   14   Tr[ns(na)] =   9.77620
    eigenvalues: 
  0.903  0.996  0.996  0.997  0.997
    eigenvectors:
  0.000  0.461  0.000  0.539  0.000
  0.333  0.090  0.269  0.077  0.231
  0.333  0.090  0.269  0.077  0.231
  0.000  0.000  0.461  0.000  0.539
  0.333  0.359  0.000  0.308  0.000
    occupations:
  0.996  0.000  0.000  0.000  0.000
  0.000  0.965 -0.031  0.000  0.031
  0.000 -0.031  0.965  0.000  0.031
  0.000  0.000  0.000  0.996  0.000
  0.000  0.031  0.031  0.000  0.965
atom   15   Tr[ns(na)] =   9.77620
    eigenvalues: 
  0.903  0.996  0.996  0.997  0.997
    eigenvectors:
  0.000  0.461  0.000  0.000  0.539
  0.333  0.090  0.269  0.231  0.077
  0.333  0.090  0.269  0.231  0.077
  0.000  0.000  0.461  0.539  0.000
  0.333  0.359  0.000  0.000  0.308
    occupations:
  0.996  0.000  0.000  0.000  0.000
  0.000  0.965 -0.031  0.000 -0.031
  0.000 -0.031  0.965  0.000 -0.031
  0.000  0.000  0.000  0.996  0.000
  0.000 -0.031 -0.031  0.000  0.965
atom   16   Tr[ns(na)] =   9.77620
    eigenvalues: 
  0.903  0.996  0.996  0.997  0.997
    eigenvectors:
  0.000  0.346  0.115  0.135  0.404
  0.333  0.269  0.090  0.077  0.231
  0.333  0.000  0.359  0.308  0.000
  0.000  0.115  0.346  0.404  0.135
  0.333  0.269  0.090  0.077  0.231
    occupations:
  0.996  0.000  0.000  0.000  0.000
  0.000  0.965  0.031  0.000  0.031
  0.000  0.031  0.965  0.000 -0.031
  0.000  0.000  0.000  0.996  0.000
  0.000  0.031 -0.031  0.000  0.965
atom   17   Tr[ns(na)] =   5.74459
    eigenvalues: 
  0.957  0.957  0.957
    eigenvectors:
  0.333  0.359  0.307
  0.333  0.608  0.058
  0.333  0.033  0.634
    occupations:
  0.957  0.000  0.000
  0.000  0.957  0.000
  0.000  0.000  0.957
atom   18   Tr[ns(na)] =   5.74459
    eigenvalues: 
  0.957  0.957  0.957
    eigenvectors:
  0.333  0.414  0.252
  0.333  0.573  0.094
  0.333  0.013  0.654
    occupations:
  0.957  0.000  0.000
  0.000  0.957  0.000
  0.000  0.000  0.957
atom   19   Tr[ns(na)] =   5.74458
    eigenvalues: 
  0.957  0.957  0.957
    eigenvectors:
  0.076  0.424  0.500
  0.848  0.152  0.000
  0.076  0.424  0.500
    occupations:
  0.957  0.000  0.000
  0.000  0.957  0.000
  0.000  0.000  0.957
atom   20   Tr[ns(na)] =   5.74458
    eigenvalues: 
  0.957  0.957  0.957
    eigenvectors:
  0.848  0.152  0.000
  0.076  0.424  0.500
  0.076  0.424  0.500
    occupations:
  0.957  0.000  0.000
  0.000  0.957  0.000
  0.000  0.000  0.957
atom   21   Tr[ns(na)] =   5.74458
    eigenvalues: 
  0.957  0.957  0.957
    eigenvectors:
  0.076  0.424  0.500
  0.848  0.152  0.000
  0.076  0.424  0.500
    occupations:
  0.957  0.000  0.000
  0.000  0.957  0.000
  0.000  0.000  0.957
atom   22   Tr[ns(na)] =   5.74458
    eigenvalues: 
  0.957  0.957  0.957
    eigenvectors:
  0.848  0.152  0.000
  0.076  0.424  0.500
  0.076  0.424  0.500
    occupations:
  0.957  0.000  0.000
  0.000  0.957  0.000
  0.000  0.000  0.957
atom   23   Tr[ns(na)] =   5.74458
    eigenvalues: 
  0.957  0.957  0.957
    eigenvectors:
  0.076  0.424  0.500
  0.076  0.424  0.500
  0.848  0.152  0.000
    occupations:
  0.957  0.000  0.000
  0.000  0.957  0.000
  0.000  0.000  0.957
atom   24   Tr[ns(na)] =   5.74458
    eigenvalues: 
  0.957  0.957  0.957
    eigenvectors:
  0.076  0.424  0.500
  0.076  0.424  0.500
  0.848  0.152  0.000
    occupations:
  0.957  0.000  0.000
  0.000  0.957  0.000
  0.000  0.000  0.957
N of occupied +U levels = 202.3758454
 --- exit write_ns ---
 Atomic wfc used for LDA+U Projector are NOT orthogonalized
     Starting wfc from file

     total cpu time spent up to now is        3.3 secs

     per-process dynamical memory:    45.3 Mb

     Self-consistent Calculation

     iteration #  1     ecut=    30.00 Ry     beta=0.30
     Davidson diagonalization with overlap
     ethr =  3.29E-10,  avg # of iterations =  4.5
 --- enter write_ns ---
 LDA+U parameters:
U( 1)     =  0.00000000
alpha( 1) =  0.02000000
U( 2)     =  0.00000000
alpha( 2) =  0.00000000
U( 3)     =  0.00000000
alpha( 3) =  0.00000000
atom    1   Tr[ns(na)] =   9.77431
    eigenvalues: 
  0.902  0.996  0.996  0.997  0.997
    eigenvectors:
  0.000  0.302  0.158  0.305  0.235
  0.333  0.004  0.356  0.275  0.032
  0.333  0.300  0.060  0.012  0.295
  0.000  0.158  0.302  0.235  0.305
  0.333  0.236  0.124  0.173  0.134
    occupations:
  0.996  0.000  0.000  0.000  0.000
  0.000  0.965 -0.031  0.000  0.031
  0.000 -0.031  0.965  0.000  0.031
  0.000  0.000  0.000  0.996  0.000
  0.000  0.031  0.031  0.000  0.965
atom    2   Tr[ns(na)] =   9.77620
    eigenvalues: 
  0.903  0.996  0.996  0.997  0.997
    eigenvectors:
  0.000  0.346  0.115  0.135  0.404
  0.333  0.269  0.090  0.077  0.231
  0.333  0.000  0.359  0.307  0.000
  0.000  0.115  0.346  0.404  0.135
  0.333  0.269  0.090  0.077  0.231
    occupations:
  0.996  0.000  0.000  0.000  0.000
  0.000  0.965  0.031  0.000  0.031
  0.000  0.031  0.965  0.000 -0.031
  0.000  0.000  0.000  0.996  0.000
  0.000  0.031 -0.031  0.000  0.965
atom    3   Tr[ns(na)] =   9.77620
    eigenvalues: 
  0.903  0.996  0.996  0.997  0.997
    eigenvectors:
  0.000  0.000  0.461  0.539  0.000
  0.333  0.269  0.090  0.077  0.231
  0.333  0.269  0.090  0.077  0.231
  0.000  0.461  0.000  0.000  0.539
  0.333  0.000  0.359  0.307  0.000
    occupations:
  0.996  0.000  0.000  0.000  0.000
  0.000  0.965 -0.031  0.000 -0.031
  0.000 -0.031  0.965  0.000 -0.031
  0.000  0.000  0.000  0.996  0.000
  0.000 -0.031 -0.031  0.000  0.965
atom    4   Tr[ns(na)] =   9.77620
    eigenvalues: 
  0.903  0.996  0.996  0.997  0.997
    eigenvectors:
  0.000  0.346  0.115  0.135  0.404
  0.333  0.269  0.090  0.077  0.231
  0.333  0.000  0.359  0.307  0.000
  0.000  0.115  0.346  0.404  0.135
  0.333  0.269  0.090  0.077  0.231
    occupations:
  0.996  0.000  0.000  0.000  0.000
  0.000  0.965  0.031  0.000  0.031
  0.000  0.031  0.965  0.000 -0.031
  0.000  0.000  0.000  0.996  0.000
  0.000  0.031 -0.031  0.000  0.965
atom    5   Tr[ns(na)] =   9.77628
    eigenvalues: 
  0.903  0.996  0.996  0.997  0.997
    eigenvectors:
  0.000  0.346  0.115  0.404  0.135
  0.333  0.269  0.090  0.231  0.077
  0.333  0.000  0.359  0.000  0.307
  0.000  0.115  0.346  0.135  0.404
  0.333  0.269  0.090  0.231  0.077
    occupations:
  0.996  0.000  0.000  0.000  0.000
  0.000  0.965  0.031  0.000  0.031
  0.000  0.031  0.965  0.000 -0.031
  0.000  0.000  0.000  0.996  0.000
  0.000  0.031 -0.031  0.000  0.965
atom    6   Tr[ns(na)] =   9.77628
    eigenvalues: 
  0.903  0.996  0.996  0.997  0.997
    eigenvectors:
  0.000  0.000  0.461  0.000  0.539
  0.333  0.269  0.090  0.231  0.077
  0.333  0.269  0.090  0.231  0.077
  0.000  0.461  0.000  0.539  0.000
  0.333  0.000  0.359  0.000  0.307
    occupations:
  0.996  0.000  0.000  0.000  0.000
  0.000  0.965 -0.031  0.000 -0.031
  0.000 -0.031  0.965  0.000 -0.031
  0.000  0.000  0.000  0.996  0.000
  0.000 -0.031 -0.031  0.000  0.965
atom    7   Tr[ns(na)] =   9.77619
    eigenvalues: 
  0.903  0.996  0.996  0.997  0.997
    eigenvectors:
  0.000  0.346  0.115  0.404  0.135
  0.333  0.269  0.090  0.231  0.077
  0.333  0.000  0.359  0.000  0.308
  0.000  0.115  0.346  0.135  0.404
  0.333  0.269  0.090  0.231  0.077
    occupations:
  0.996  0.000  0.000  0.000  0.000
  0.000  0.965 -0.031  0.000  0.031
  0.000 -0.031  0.965  0.000  0.031
  0.000  0.000  0.000  0.996  0.000
  0.000  0.031  0.031  0.000  0.965
atom    8   Tr[ns(na)] =   9.77628
    eigenvalues: 
  0.903  0.996  0.996  0.997  0.997
    eigenvectors:
  0.000  0.346  0.115  0.404  0.135
  0.333  0.000  0.359  0.000  0.307
  0.333  0.269  0.090  0.231  0.077
  0.000  0.115  0.346  0.135  0.404
  0.333  0.269  0.090  0.231  0.077
    occupations:
  0.996  0.000  0.000  0.000  0.000
  0.000  0.965  0.031  0.000 -0.031
  0.000  0.031  0.965  0.000  0.031
  0.000  0.000  0.000  0.996  0.000
  0.000 -0.031  0.031  0.000  0.965
atom    9   Tr[ns(na)] =   9.77620
    eigenvalues: 
  0.903  0.996  0.996  0.997  0.997
    eigenvectors:
  0.000  0.346  0.115  0.135  0.404
  0.333  0.000  0.359  0.307  0.000
  0.333  0.269  0.090  0.077  0.231
  0.000  0.115  0.346  0.404  0.135
  0.333  0.269  0.090  0.077  0.231
    occupations:
  0.996  0.000  0.000  0.000  0.000
  0.000  0.965  0.031  0.000 -0.031
  0.000  0.031  0.965  0.000  0.031
  0.000  0.000  0.000  0.996  0.000
  0.000 -0.031  0.031  0.000  0.965
atom   10   Tr[ns(na)] =   9.77628
    eigenvalues: 
  0.903  0.996  0.996  0.997  0.997
    eigenvectors:
  0.000  0.346  0.115  0.404  0.135
  0.333  0.000  0.359  0.000  0.307
  0.333  0.269  0.090  0.231  0.077
  0.000  0.115  0.346  0.135  0.404
  0.333  0.269  0.090  0.231  0.077
    occupations:
  0.996  0.000  0.000  0.000  0.000
  0.000  0.965  0.031  0.000 -0.031
  0.000  0.031  0.965  0.000  0.031
  0.000  0.000  0.000  0.996  0.000
  0.000 -0.031  0.031  0.000  0.965
atom   11   Tr[ns(na)] =   9.77620
    eigenvalues: 
  0.903  0.996  0.996  0.997  0.997
    eigenvectors:
  0.000  0.346  0.115  0.135  0.404
  0.333  0.000  0.359  0.307  0.000
  0.333  0.269  0.090  0.077  0.231
  0.000  0.115  0.346  0.404  0.135
  0.333  0.269  0.090  0.077  0.231
    occupations:
  0.996  0.000  0.000  0.000  0.000
  0.000  0.965  0.031  0.000 -0.031
  0.000  0.031  0.965  0.000  0.031
  0.000  0.000  0.000  0.996  0.000
  0.000 -0.031  0.031  0.000  0.965
atom   12   Tr[ns(na)] =   9.77619
    eigenvalues: 
  0.903  0.996  0.996  0.997  0.997
    eigenvectors:
  0.000  0.346  0.115  0.404  0.135
  0.333  0.000  0.359  0.000  0.308
  0.333  0.269  0.090  0.231  0.077
  0.000  0.115  0.346  0.135  0.404
  0.333  0.269  0.090  0.231  0.077
    occupations:
  0.996  0.000  0.000  0.000  0.000
  0.000  0.965 -0.031  0.000  0.031
  0.000 -0.031  0.965  0.000  0.031
  0.000  0.000  0.000  0.996  0.000
  0.000  0.031  0.031  0.000  0.965
atom   13   Tr[ns(na)] =   9.77628
    eigenvalues: 
  0.903  0.996  0.996  0.997  0.997
    eigenvectors:
  0.000  0.000  0.461  0.000  0.539
  0.333  0.269  0.090  0.231  0.077
  0.333  0.269  0.090  0.231  0.077
  0.000  0.461  0.000  0.539  0.000
  0.333  0.000  0.359  0.000  0.307
    occupations:
  0.996  0.000  0.000  0.000  0.000
  0.000  0.965 -0.031  0.000 -0.031
  0.000 -0.031  0.965  0.000 -0.031
  0.000  0.000  0.000  0.996  0.000
  0.000 -0.031 -0.031  0.000  0.965
atom   14   Tr[ns(na)] =   9.77619
    eigenvalues: 
  0.903  0.996  0.996  0.997  0.997
    eigenvectors:
  0.000  0.000  0.462  0.000  0.538
  0.333  0.269  0.090  0.231  0.077
  0.333  0.269  0.090  0.231  0.077
  0.000  0.461  0.000  0.539  0.000
  0.333  0.000  0.359  0.000  0.308
    occupations:
  0.996  0.000  0.000  0.000  0.000
  0.000  0.965 -0.031  0.000  0.031
  0.000 -0.031  0.965  0.000  0.031
  0.000  0.000  0.000  0.996  0.000
  0.000  0.031  0.031  0.000  0.965
atom   15   Tr[ns(na)] =   9.77620
    eigenvalues: 
  0.903  0.996  0.996  0.997  0.997
    eigenvectors:
  0.000  0.000  0.461  0.539  0.000
  0.333  0.269  0.090  0.077  0.231
  0.333  0.269  0.090  0.077  0.231
  0.000  0.461  0.000  0.000  0.539
  0.333  0.000  0.359  0.307  0.000
    occupations:
  0.996  0.000  0.000  0.000  0.000
  0.000  0.965 -0.031  0.000 -0.031
  0.000 -0.031  0.965  0.000 -0.031
  0.000  0.000  0.000  0.996  0.000
  0.000 -0.031 -0.031  0.000  0.965
atom   16   Tr[ns(na)] =   9.77628
    eigenvalues: 
  0.903  0.996  0.996  0.997  0.997
    eigenvectors:
  0.000  0.346  0.115  0.404  0.135
  0.333  0.269  0.090  0.231  0.077
  0.333  0.000  0.359  0.000  0.307
  0.000  0.115  0.346  0.135  0.404
  0.333  0.269  0.090  0.231  0.077
    occupations:
  0.996  0.000  0.000  0.000  0.000
  0.000  0.965  0.031  0.000  0.031
  0.000  0.031  0.965  0.000 -0.031
  0.000  0.000  0.000  0.996  0.000
  0.000  0.031 -0.031  0.000  0.965
atom   17   Tr[ns(na)] =   5.74455
    eigenvalues: 
  0.957  0.957  0.957
    eigenvectors:
  0.429  0.238  0.333
  0.562  0.105  0.333
  0.009  0.658  0.333
    occupations:
  0.957  0.000  0.000
  0.000  0.957  0.000
  0.000  0.000  0.957
atom   18   Tr[ns(na)] =   5.74455
    eigenvalues: 
  0.957  0.957  0.957
    eigenvectors:
  0.426  0.241  0.333
  0.564  0.102  0.333
  0.010  0.657  0.333
    occupations:
  0.957  0.000  0.000
  0.000  0.957  0.000
  0.000  0.000  0.957
atom   19   Tr[ns(na)] =   5.74457
    eigenvalues: 
  0.957  0.957  0.957
    eigenvectors:
  0.500  0.420  0.080
  0.000  0.159  0.841
  0.500  0.420  0.080
    occupations:
  0.957  0.000  0.000
  0.000  0.957  0.000
  0.000  0.000  0.957
atom   20   Tr[ns(na)] =   5.74457
    eigenvalues: 
  0.957  0.957  0.957
    eigenvectors:
  0.000  0.159  0.841
  0.500  0.420  0.080
  0.500  0.420  0.080
    occupations:
  0.957  0.000  0.000
  0.000  0.957  0.000
  0.000  0.000  0.957
atom   21   Tr[ns(na)] =   5.74457
    eigenvalues: 
  0.957  0.957  0.957
    eigenvectors:
  0.500  0.420  0.080
  0.000  0.159  0.841
  0.500  0.420  0.080
    occupations:
  0.957  0.000  0.000
  0.000  0.957  0.000
  0.000  0.000  0.957
atom   22   Tr[ns(na)] =   5.74457
    eigenvalues: 
  0.957  0.957  0.957
    eigenvectors:
  0.000  0.159  0.841
  0.500  0.420  0.080
  0.500  0.420  0.080
    occupations:
  0.957  0.000  0.000
  0.000  0.957  0.000
  0.000  0.000  0.957
atom   23   Tr[ns(na)] =   5.74457
    eigenvalues: 
  0.957  0.957  0.957
    eigenvectors:
  0.500  0.420  0.080
  0.500  0.420  0.080
  0.000  0.159  0.841
    occupations:
  0.957  0.000  0.000
  0.000  0.957  0.000
  0.000  0.000  0.957
atom   24   Tr[ns(na)] =   5.74457
    eigenvalues: 
  0.957  0.957  0.957
    eigenvectors:
  0.500  0.420  0.080
  0.500  0.420  0.080
  0.000  0.159  0.841
    occupations:
  0.957  0.000  0.000
  0.000  0.957  0.000
  0.000  0.000  0.957
N of occupied +U levels = 202.3742761
 --- exit write_ns ---

     total cpu time spent up to now is       21.2 secs

     total energy              =   -1657.01022710 Ry
     Harris-Foulkes estimate   =   -1657.01022902 Ry
     estimated scf accuracy    <       0.00000430 Ry

     iteration #  2     ecut=    30.00 Ry     beta=0.30
     Davidson diagonalization with overlap
     ethr =  1.92E-09,  avg # of iterations =  4.2

     total cpu time spent up to now is       35.4 secs

     total energy              =   -1657.01022805 Ry
     Harris-Foulkes estimate   =   -1657.01022852 Ry
     estimated scf accuracy    <       0.00000145 Ry

     iteration #  3     ecut=    30.00 Ry     beta=0.30
     Davidson diagonalization with overlap
     ethr =  6.49E-10,  avg # of iterations =  4.0

     total cpu time spent up to now is       48.8 secs

     total energy              =   -1657.01022826 Ry
     Harris-Foulkes estimate   =   -1657.01022827 Ry
     estimated scf accuracy    <       0.00000003 Ry

     iteration #  4     ecut=    30.00 Ry     beta=0.30
     Davidson diagonalization with overlap
     ethr =  1.21E-11,  avg # of iterations =  3.0

     total cpu time spent up to now is       62.1 secs

     End of self-consistent calculation
 --- enter write_ns ---
 LDA+U parameters:
U( 1)     =  0.00000000
alpha( 1) =  0.02000000
U( 2)     =  0.00000000
alpha( 2) =  0.00000000
U( 3)     =  0.00000000
alpha( 3) =  0.00000000
atom    1   Tr[ns(na)] =   9.77526
    eigenvalues: 
  0.902  0.996  0.996  0.997  0.997
    eigenvectors:
  0.000  0.292  0.172  0.285  0.251
  0.333  0.006  0.351  0.284  0.026
  0.333  0.305  0.052  0.016  0.293
  0.000  0.172  0.292  0.251  0.285
  0.333  0.225  0.132  0.165  0.145
    occupations:
  0.996  0.000  0.000  0.000  0.001
  0.000  0.965 -0.031  0.000  0.031
  0.000 -0.031  0.965  0.000  0.031
  0.000  0.000  0.000  0.996  0.000
  0.001  0.031  0.031  0.000  0.965
atom    2   Tr[ns(na)] =   9.77620
    eigenvalues: 
  0.903  0.996  0.996  0.997  0.997
    eigenvectors:
  0.000  0.115  0.346  0.135  0.404
  0.333  0.090  0.269  0.077  0.231
  0.333  0.359  0.000  0.308  0.000
  0.000  0.346  0.115  0.404  0.135
  0.333  0.090  0.269  0.077  0.231
    occupations:
  0.996  0.000  0.000  0.000  0.000
  0.000  0.965  0.031  0.000  0.031
  0.000  0.031  0.965  0.000 -0.031
  0.000  0.000  0.000  0.996  0.000
  0.000  0.031 -0.031  0.000  0.965
atom    3   Tr[ns(na)] =   9.77620
    eigenvalues: 
  0.903  0.996  0.996  0.997  0.997
    eigenvectors:
  0.000  0.461  0.000  0.539  0.000
  0.333  0.090  0.269  0.077  0.231
  0.333  0.090  0.269  0.077  0.231
  0.000  0.000  0.461  0.000  0.539
  0.333  0.359  0.000  0.308  0.000
    occupations:
  0.996  0.000  0.000  0.000  0.000
  0.000  0.965 -0.031  0.000 -0.031
  0.000 -0.031  0.965  0.000 -0.031
  0.000  0.000  0.000  0.996  0.000
  0.000 -0.031 -0.031  0.000  0.965
atom    4   Tr[ns(na)] =   9.77620
    eigenvalues: 
  0.903  0.996  0.996  0.997  0.997
    eigenvectors:
  0.000  0.115  0.346  0.135  0.404
  0.333  0.090  0.269  0.077  0.231
  0.333  0.359  0.000  0.308  0.000
  0.000  0.346  0.115  0.404  0.135
  0.333  0.090  0.269  0.077  0.231
    occupations:
  0.996  0.000  0.000  0.000  0.000
  0.000  0.965  0.031  0.000  0.031
  0.000  0.031  0.965  0.000 -0.031
  0.000  0.000  0.000  0.996  0.000
  0.000  0.031 -0.031  0.000  0.965
atom    5   Tr[ns(na)] =   9.77620
    eigenvalues: 
  0.903  0.996  0.996  0.997  0.997
    eigenvectors:
  0.000  0.346  0.115  0.135  0.404
  0.333  0.269  0.090  0.077  0.231
  0.333  0.000  0.359  0.307  0.000
  0.000  0.115  0.346  0.404  0.135
  0.333  0.269  0.090  0.077  0.231
    occupations:
  0.996  0.000  0.000  0.000  0.000
  0.000  0.965  0.031  0.000  0.031
  0.000  0.031  0.965  0.000 -0.031
  0.000  0.000  0.000  0.996  0.000
  0.000  0.031 -0.031  0.000  0.965
atom    6   Tr[ns(na)] =   9.77620
    eigenvalues: 
  0.903  0.996  0.996  0.997  0.997
    eigenvectors:
  0.000  0.000  0.461  0.539  0.000
  0.333  0.269  0.090  0.077  0.231
  0.333  0.269  0.090  0.077  0.231
  0.000  0.461  0.000  0.000  0.539
  0.333  0.000  0.359  0.307  0.000
    occupations:
  0.996  0.000  0.000  0.000  0.000
  0.000  0.965 -0.031  0.000 -0.031
  0.000 -0.031  0.965  0.000 -0.031
  0.000  0.000  0.000  0.996  0.000
  0.000 -0.031 -0.031  0.000  0.965
atom    7   Tr[ns(na)] =   9.77619
    eigenvalues: 
  0.903  0.996  0.996  0.997  0.997
    eigenvectors:
  0.000  0.346  0.115  0.404  0.135
  0.333  0.269  0.090  0.231  0.077
  0.333  0.000  0.359  0.000  0.308
  0.000  0.115  0.346  0.135  0.404
  0.333  0.269  0.090  0.231  0.077
    occupations:
  0.996  0.000  0.000  0.000  0.000
  0.000  0.965 -0.031  0.000  0.031
  0.000 -0.031  0.965  0.000  0.031
  0.000  0.000  0.000  0.996  0.000
  0.000  0.031  0.031  0.000  0.965
atom    8   Tr[ns(na)] =   9.77620
    eigenvalues: 
  0.903  0.996  0.996  0.997  0.997
    eigenvectors:
  0.000  0.346  0.115  0.135  0.404
  0.333  0.000  0.359  0.307  0.000
  0.333  0.269  0.090  0.077  0.231
  0.000  0.115  0.346  0.404  0.135
  0.333  0.269  0.090  0.077  0.231
    occupations:
  0.996  0.000  0.000  0.000  0.000
  0.000  0.965  0.031  0.000 -0.031
  0.000  0.031  0.965  0.000  0.031
  0.000  0.000  0.000  0.996  0.000
  0.000 -0.031  0.031  0.000  0.965
atom    9   Tr[ns(na)] =   9.77620
    eigenvalues: 
  0.903  0.996  0.996  0.997  0.997
    eigenvectors:
  0.000  0.115  0.346  0.135  0.404
  0.333  0.359  0.000  0.308  0.000
  0.333  0.090  0.269  0.077  0.231
  0.000  0.346  0.115  0.404  0.135
  0.333  0.090  0.269  0.077  0.231
    occupations:
  0.996  0.000  0.000  0.000  0.000
  0.000  0.965  0.031  0.000 -0.031
  0.000  0.031  0.965  0.000  0.031
  0.000  0.000  0.000  0.996  0.000
  0.000 -0.031  0.031  0.000  0.965
atom   10   Tr[ns(na)] =   9.77620
    eigenvalues: 
  0.903  0.996  0.996  0.997  0.997
    eigenvectors:
  0.000  0.346  0.115  0.135  0.404
  0.333  0.000  0.359  0.307  0.000
  0.333  0.269  0.090  0.077  0.231
  0.000  0.115  0.346  0.404  0.135
  0.333  0.269  0.090  0.077  0.231
    occupations:
  0.996  0.000  0.000  0.000  0.000
  0.000  0.965  0.031  0.000 -0.031
  0.000  0.031  0.965  0.000  0.031
  0.000  0.000  0.000  0.996  0.000
  0.000 -0.031  0.031  0.000  0.965
atom   11   Tr[ns(na)] =   9.77620
    eigenvalues: 
  0.903  0.996  0.996  0.997  0.997
    eigenvectors:
  0.000  0.115  0.346  0.135  0.404
  0.333  0.359  0.000  0.308  0.000
  0.333  0.090  0.269  0.077  0.231
  0.000  0.346  0.115  0.404  0.135
  0.333  0.090  0.269  0.077  0.231
    occupations:
  0.996  0.000  0.000  0.000  0.000
  0.000  0.965  0.031  0.000 -0.031
  0.000  0.031  0.965  0.000  0.031
  0.000  0.000  0.000  0.996  0.000
  0.000 -0.031  0.031  0.000  0.965
atom   12   Tr[ns(na)] =   9.77619
    eigenvalues: 
  0.903  0.996  0.996  0.997  0.997
    eigenvectors:
  0.000  0.346  0.115  0.404  0.135
  0.333  0.000  0.359  0.000  0.308
  0.333  0.269  0.090  0.231  0.077
  0.000  0.115  0.346  0.135  0.404
  0.333  0.269  0.090  0.231  0.077
    occupations:
  0.996  0.000  0.000  0.000  0.000
  0.000  0.965 -0.031  0.000  0.031
  0.000 -0.031  0.965  0.000  0.031
  0.000  0.000  0.000  0.996  0.000
  0.000  0.031  0.031  0.000  0.965
atom   13   Tr[ns(na)] =   9.77620
    eigenvalues: 
  0.903  0.996  0.996  0.997  0.997
    eigenvectors:
  0.000  0.000  0.461  0.539  0.000
  0.333  0.269  0.090  0.077  0.231
  0.333  0.269  0.090  0.077  0.231
  0.000  0.461  0.000  0.000  0.539
  0.333  0.000  0.359  0.307  0.000
    occupations:
  0.996  0.000  0.000  0.000  0.000
  0.000  0.965 -0.031  0.000 -0.031
  0.000 -0.031  0.965  0.000 -0.031
  0.000  0.000  0.000  0.996  0.000
  0.000 -0.031 -0.031  0.000  0.965
atom   14   Tr[ns(na)] =   9.77619
    eigenvalues: 
  0.903  0.996  0.996  0.997  0.997
    eigenvectors:
  0.000  0.000  0.461  0.000  0.539
  0.333  0.269  0.090  0.231  0.077
  0.333  0.269  0.090  0.231  0.077
  0.000  0.461  0.000  0.539  0.000
  0.333  0.000  0.359  0.000  0.308
    occupations:
  0.996  0.000  0.000  0.000  0.000
  0.000  0.965 -0.031  0.000  0.031
  0.000 -0.031  0.965  0.000  0.031
  0.000  0.000  0.000  0.996  0.000
  0.000  0.031  0.031  0.000  0.965
atom   15   Tr[ns(na)] =   9.77620
    eigenvalues: 
  0.903  0.996  0.996  0.997  0.997
    eigenvectors:
  0.000  0.461  0.000  0.539  0.000
  0.333  0.090  0.269  0.077  0.231
  0.333  0.090  0.269  0.077  0.231
  0.000  0.000  0.461  0.000  0.539
  0.333  0.359  0.000  0.308  0.000
    occupations:
  0.996  0.000  0.000  0.000  0.000
  0.000  0.965 -0.031  0.000 -0.031
  0.000 -0.031  0.965  0.000 -0.031
  0.000  0.000  0.000  0.996  0.000
  0.000 -0.031 -0.031  0.000  0.965
atom   16   Tr[ns(na)] =   9.77620
    eigenvalues: 
  0.903  0.996  0.996  0.997  0.997
    eigenvectors:
  0.000  0.346  0.115  0.135  0.404
  0.333  0.269  0.090  0.077  0.231
  0.333  0.000  0.359  0.307  0.000
  0.000  0.115  0.346  0.404  0.135
  0.333  0.269  0.090  0.077  0.231
    occupations:
  0.996  0.000  0.000  0.000  0.000
  0.000  0.965  0.031  0.000  0.031
  0.000  0.031  0.965  0.000 -0.031
  0.000  0.000  0.000  0.996  0.000
  0.000  0.031 -0.031  0.000  0.965
atom   17   Tr[ns(na)] =   5.74461
    eigenvalues: 
  0.957  0.957  0.957
    eigenvectors:
  0.333  0.500  0.167
  0.333  0.500  0.167
  0.333  0.000  0.667
    occupations:
  0.957  0.000  0.000
  0.000  0.957  0.000
  0.000  0.000  0.957
atom   18   Tr[ns(na)] =   5.74461
    eigenvalues: 
  0.957  0.957  0.957
    eigenvectors:
  0.333  0.438  0.229
  0.333  0.555  0.112
  0.333  0.007  0.660
    occupations:
  0.957  0.000  0.000
  0.000  0.957  0.000
  0.000  0.000  0.957
atom   19   Tr[ns(na)] =   5.74457
    eigenvalues: 
  0.957  0.957  0.957
    eigenvectors:
  0.500  0.071  0.429
  0.000  0.858  0.142
  0.500  0.071  0.429
    occupations:
  0.957  0.000  0.000
  0.000  0.957  0.000
  0.000  0.000  0.957
atom   20   Tr[ns(na)] =   5.74457
    eigenvalues: 
  0.957  0.957  0.957
    eigenvectors:
  0.000  0.858  0.142
  0.500  0.071  0.429
  0.500  0.071  0.429
    occupations:
  0.957  0.000  0.000
  0.000  0.957  0.000
  0.000  0.000  0.957
atom   21   Tr[ns(na)] =   5.74457
    eigenvalues: 
  0.957  0.957  0.957
    eigenvectors:
  0.500  0.071  0.429
  0.000  0.858  0.142
  0.500  0.071  0.429
    occupations:
  0.957  0.000  0.000
  0.000  0.957  0.000
  0.000  0.000  0.957
atom   22   Tr[ns(na)] =   5.74457
    eigenvalues: 
  0.957  0.957  0.957
    eigenvectors:
  0.000  0.858  0.142
  0.500  0.071  0.429
  0.500  0.071  0.429
    occupations:
  0.957  0.000  0.000
  0.000  0.957  0.000
  0.000  0.000  0.957
atom   23   Tr[ns(na)] =   5.74457
    eigenvalues: 
  0.957  0.957  0.957
    eigenvectors:
  0.500  0.071  0.429
  0.500  0.071  0.429
  0.000  0.858  0.142
    occupations:
  0.957  0.000  0.000
  0.000  0.957  0.000
  0.000  0.000  0.957
atom   24   Tr[ns(na)] =   5.74457
    eigenvalues: 
  0.957  0.957  0.957
    eigenvectors:
  0.500  0.071  0.429
  0.500  0.071  0.429
  0.000  0.858  0.142
    occupations:
  0.957  0.000  0.000
  0.000  0.957  0.000
  0.000  0.000  0.957
N of occupied +U levels = 202.3748899
 --- exit write_ns ---

          k = 0.0000 0.0000 0.0000 (  6099 PWs)   bands (ev):

   -11.0920 -10.7488 -10.7483 -10.7483 -10.7483 -10.7483 -10.7480 -10.4509
     1.6678   1.6678   1.6680   1.6681   1.6682   1.6682   1.7606   1.7606
     1.7606   2.7412   2.7413   2.7413   2.7418   2.7418   2.7422   3.3483
     3.3487   3.3487   3.3487   3.3495   3.3495   3.9961   4.0891   4.0892
     4.0892   5.6261   5.6261   5.6740   5.6740   5.6741   5.6747   5.6747
     5.6772   5.7467   5.7469   5.7469   5.8836   5.8836   5.8837   5.8846
     5.8857   5.8857   6.2975   6.2975   6.2975   6.2976   6.2996   6.2996
     6.3054   6.3055   6.3055   6.3056   6.3081   6.3081   6.3717   6.3717
     6.3717   6.3717   6.3744   6.3744   6.5167   6.5167   6.6193   6.6193
     6.6194   6.6195   6.6215   6.6215   6.6317   6.6326   6.6326   6.6749
     6.6759   6.6759   6.6819   6.6819   6.6819   6.6819   6.6844   6.6844
     6.9908   6.9908   6.9908   6.9912   6.9921   6.9921   6.9955   6.9967
     6.9967   7.2264   7.2265   7.2266   7.2266   7.2280   7.2280   7.8162
     7.8163   7.8163   7.8166   7.8166   7.8177   8.4054   8.4054   8.4058

          k = 0.0000 0.2500-0.2500 (  6164 PWs)   bands (ev):

   -10.9244 -10.9243 -10.8514 -10.8511 -10.6446 -10.6443 -10.6030 -10.6026
     1.7238   1.7244   1.7832   1.7836   2.0203   2.0206   2.0780   2.0789
     2.0935   2.0939   2.4237   2.4243   2.6812   2.6815   3.1235   3.1244
     3.1752   3.1759   3.2629   3.2637   3.3337   3.3342   3.6513   3.6517
     4.8283   4.8289   5.4178   5.4201   5.5580   5.5592   5.7613   5.7637
     5.7844   5.7864   5.8238   5.8258   6.0315   6.0334   6.0551   6.0567
     6.1027   6.1032   6.1424   6.1439   6.2593   6.2608   6.2812   6.2827
     6.3372   6.3375   6.3659   6.3678   6.4206   6.4222   6.4229   6.4243
     6.4396   6.4425   6.4456   6.4477   6.4629   6.4639   6.5240   6.5260
     6.5404   6.5413   6.6116   6.6139   6.7155   6.7165   6.7166   6.7170
     6.7572   6.7591   6.7706   6.7715   6.7888   6.7903   6.8106   6.8111
     6.8112   6.8137   6.8243   6.8257   6.9235   6.9254   6.9560   6.9568
     6.9882   6.9889   7.2192   7.2209   7.2682   7.2695   7.3802   7.3807
     7.7344   7.7357   7.8914   7.8918   7.8980   7.8984   8.1548   8.1556

          k = 0.0000 0.0000-0.5000 (  6098 PWs)   bands (ev):

   -10.9356 -10.7676 -10.7671 -10.7671 -10.7671 -10.7671 -10.7670 -10.5190
     1.8562   1.8564   1.8564   2.3419   2.3419   2.3421   2.3422   2.3422
     2.3434   2.3992   2.3993   2.3993   2.3993   2.3998   2.3998   3.0132
     3.0135   3.0135   3.0136   3.0146   3.0146   3.2573   3.2573   3.2573
     5.3202   5.3203   5.3203   5.3206   5.3206   5.3233   5.4649   5.4649
     5.4652   6.0042   6.0042   6.0384   6.0384   6.0385   6.0385   6.0411
     6.0411   6.2531   6.2531   6.2531   6.2534   6.2555   6.2555   6.3202
     6.3215   6.3215   6.4553   6.4553   6.4553   6.4553   6.4577   6.4577
     6.4683   6.4683   6.4683   6.4689   6.4700   6.4700   6.4871   6.4872
     6.4872   6.4872   6.4894   6.4894   6.5709   6.5718   6.5718   6.6546
     6.6546   6.6546   6.6547   6.6570   6.6570   6.7034   6.7045   6.7045
     6.8651   6.8652   6.8652   6.8652   6.8674   6.8674   6.9519   6.9519
     7.2414   7.2415   7.2415   7.2415   7.2430   7.2430   7.4044   7.9003
     7.9003   7.9004   8.0566   8.0566   8.0567   8.0568   8.0568   8.0584

          k = 0.0000-0.2500-0.2500 (  6164 PWs)   bands (ev):

   -10.9246 -10.9244 -10.8513 -10.8511 -10.6447 -10.6444 -10.6028 -10.6025
     1.7237   1.7242   1.7832   1.7836   2.0203   2.0210   2.0780   2.0784
     2.0936   2.0943   2.4235   2.4242   2.6812   2.6818   3.1232   3.1236
     3.1752   3.1758   3.2629   3.2634   3.3338   3.3348   3.6515   3.6524
     4.8282   4.8299   5.4178   5.4188   5.5580   5.5598   5.7613   5.7625
     5.7843   5.7861   5.8237   5.8252   6.0314   6.0329   6.0551   6.0570
     6.1027   6.1054   6.1424   6.1440   6.2593   6.2611   6.2813   6.2832
     6.3372   6.3401   6.3659   6.3674   6.4206   6.4214   6.4221   6.4232
     6.4396   6.4400   6.4456   6.4466   6.4630   6.4653   6.5240   6.5251
     6.5403   6.5424   6.6117   6.6125   6.7155   6.7165   6.7173   6.7188
     6.7572   6.7580   6.7706   6.7727   6.7888   6.7903   6.8106   6.8111
     6.8112   6.8133   6.8243   6.8261   6.9235   6.9241   6.9560   6.9578
     6.9881   6.9898   7.2193   7.2197   7.2682   7.2687   7.3803   7.3815
     7.7344   7.7349   7.8913   7.8923   7.8980   7.8990   8.1547   8.1552

!    total energy              =   -1657.01022826 Ry
     Harris-Foulkes estimate   =   -1657.01022827 Ry
     estimated scf accuracy    <          9.7E-09 Ry

     The total energy is the sum of the following terms:

     one-electron contribution =    -562.95024282 Ry
     hartree contribution      =     504.00517498 Ry
     xc contribution           =    -286.11404947 Ry
     ewald contribution        =   -1311.96548030 Ry
     Hubbard energy            =       0.01436936 Ry

     convergence has been achieved in   4 iterations

     Writing output data file cu2o.save
 
     init_run     :      2.78s CPU      3.16s WALL (       1 calls)
     electrons    :     56.08s CPU     58.89s WALL (       1 calls)

     Called by init_run:
     wfcinit      :      0.62s CPU      0.72s WALL (       1 calls)
     potinit      :      0.26s CPU      0.34s WALL (       1 calls)

     Called by electrons:
     c_bands      :     39.79s CPU     41.23s WALL (       4 calls)
     sum_band     :      9.71s CPU     10.20s WALL (       4 calls)
     v_of_rho     :      1.05s CPU      1.26s WALL (       5 calls)
     newd         :      6.70s CPU      7.44s WALL (       5 calls)
     mix_rho      :      0.12s CPU      0.13s WALL (       4 calls)

     Called by c_bands:
     init_us_2    :      0.26s CPU      0.28s WALL (      36 calls)
     cegterg      :     39.24s CPU     40.44s WALL (      16 calls)

     Called by *egterg:
     h_psi        :     22.41s CPU     22.51s WALL (      79 calls)
     s_psi        :      2.51s CPU      2.52s WALL (      83 calls)
     g_psi        :      0.09s CPU      0.10s WALL (      63 calls)
     cdiaghg      :      6.74s CPU      6.76s WALL (      75 calls)

     Called by h_psi:
     add_vuspsi   :      2.32s CPU      2.33s WALL (      79 calls)

     General routines
     calbec       :      4.57s CPU      4.58s WALL (     194 calls)
     fft          :      0.92s CPU      1.10s WALL (      74 calls)
     ffts         :      0.02s CPU      0.03s WALL (       9 calls)
     fftw         :     13.20s CPU     13.36s WALL (   11674 calls)
     interpolate  :      0.13s CPU      0.20s WALL (       9 calls)
     davcio       :      0.00s CPU      0.50s WALL (     104 calls)
 
     Parallel routines
     fft_scatter  :      4.24s CPU      4.36s WALL (   11757 calls)
     EXX routines
 
     PWSCF        :  0m59.10s CPU     1m 2.34s WALL

 
   This run was terminated on:  21:39: 7  17Jun2012            

=------------------------------------------------------------------------------=
   JOB DONE.
=------------------------------------------------------------------------------=
