
     Program PWSCF v.5.0        starts on 17Jun2012 at 21:41:25 

     This program is part of the open-source Quantum ESPRESSO suite
     for quantum simulation of materials; please cite
         "P. Giannozzi et al., J. Phys.:Condens. Matter 21 395502 (2009);
          URL http://www.quantum-espresso.org", 
     in publications or presentations arising from this work. More details at
     http://www.quantum-espresso.org/quote.php

     Parallel version (MPI), running on     4 processors
     R & G space division:  proc/pool =    4

     Current dimensions of program PWSCF are:
     Max number of different atomic species (ntypx) = 10
     Max number of k-points (npk) =  40000
     Max angular momentum in pseudopotentials (lmaxx) =  3
     Waiting for input...
     Reading input from standard input
               file O.pbe-rrkjus.UPF: wavefunction(s)  2S renormalized
               file O.pbe-rrkjus.UPF: wavefunction(s)  2S renormalized

     Subspace diagonalization in iterative solution of the eigenvalue problem:
     a serial algorithm will be used

 
     Parallelization info
     --------------------
     sticks:   dense  smooth     PW     G-vecs:    dense   smooth      PW
     Min        1137     455    131                48485    12292    1908
     Max        1138     456    132                48486    12300    1909
     Sum        4549    1821    527               193941    49181    7635
 


     bravais-lattice index     =            0
     lattice parameter (alat)  =       8.2100  a.u.
     unit-cell volume          =    2213.5506 (a.u.)^3
     number of atoms/cell      =           24
     number of atomic types    =            3
     number of electrons       =       224.00
     number of Kohn-Sham states=          112
     kinetic-energy cutoff     =      30.0000  Ry
     charge density cutoff     =     300.0000  Ry
     convergence threshold     =      1.0E-08
     mixing beta               =       0.3000
     number of iterations used =            8  plain     mixing
     Exchange-correlation      =  SLA  PW   PBE  PBE ( 1 4 3 4 0)
     EXX-fraction              =        0.00

     celldm(1)=   8.210000  celldm(2)=   0.000000  celldm(3)=   0.000000
     celldm(4)=   0.000000  celldm(5)=   0.000000  celldm(6)=   0.000000

     crystal axes: (cart. coord. in units of alat)
               a(1) = (   1.000000   1.000000   1.000000 )  
               a(2) = (  -1.000000   1.000000   1.000000 )  
               a(3) = (  -1.000000  -1.000000   1.000000 )  

     reciprocal axes: (cart. coord. in units 2 pi/alat)
               b(1) = (  0.500000  0.000000  0.500000 )  
               b(2) = ( -0.500000  0.500000  0.000000 )  
               b(3) = (  0.000000 -0.500000  0.500000 )  


     PseudoPot. # 1 for Cu read from file:
     ../pseudo/Cu.pbe-d-rrkjus.UPF
     MD5 check sum: 855c9c66b119533e70b4be5d3ca221fe
     Pseudo is Ultrasoft, Zval = 11.0
     Generated by new atomic code, or converted to UPF format
     Using radial grid of  899 points,  3 beta functions with: 
                l(1) =   2
                l(2) =   2
                l(3) =   1
     Q(r) pseudized with 0 coefficients 


     PseudoPot. # 2 for O  read from file:
     ../pseudo/O.pbe-rrkjus.UPF
     MD5 check sum: 390ba29e75625707450f3bd3f0eb6be9
     Pseudo is Ultrasoft, Zval =  6.0
     Generated by new atomic code, or converted to UPF format
     Using radial grid of 1269 points,  4 beta functions with: 
                l(1) =   0
                l(2) =   0
                l(3) =   1
                l(4) =   1
     Q(r) pseudized with 0 coefficients 


     PseudoPot. # 3 for O  read from file:
     ../pseudo/O.pbe-rrkjus.UPF
     MD5 check sum: 390ba29e75625707450f3bd3f0eb6be9
     Pseudo is Ultrasoft, Zval =  6.0
     Generated by new atomic code, or converted to UPF format
     Using radial grid of 1269 points,  4 beta functions with: 
                l(1) =   0
                l(2) =   0
                l(3) =   1
                l(4) =   1
     Q(r) pseudized with 0 coefficients 


     atomic species   valence    mass     pseudopotential
        Cu            11.00     1.00000     Cu( 1.00)
        O1             6.00     1.00000     O ( 1.00)
        O              6.00     1.00000     O ( 1.00)
 -----
     simplified LDA+U calculation, Hubbard_lmax = 2
     atomic species  L   Hubbard U  Hubbard alpha
        Cu           2    0.000000    0.000000
        O1           1    0.000000   -0.020000
        O            1    0.000000    0.000000
 -----

     24 Sym. Ops. (no inversion) found



   Cartesian axes

     site n.     atom                  positions (alat units)
         1           Cu  tau(   1) = (   0.2500000   0.2500000   0.2500000  )
         2           Cu  tau(   2) = (  -0.7500000   0.7500000   0.7500000  )
         3           Cu  tau(   3) = (  -0.2500000  -0.2500000   0.2500000  )
         4           Cu  tau(   4) = (   0.2500000   0.7500000   0.7500000  )
         5           Cu  tau(   5) = (  -0.7500000  -0.2500000   0.7500000  )
         6           Cu  tau(   6) = (  -1.2500000  -0.2500000   1.2500000  )
         7           Cu  tau(   7) = (   0.2500000   1.2500000   1.2500000  )
         8           Cu  tau(   8) = (  -0.2500000   0.2500000   0.7500000  )
         9           Cu  tau(   9) = (  -0.2500000   0.2500000   1.7500000  )
        10           Cu  tau(  10) = (  -1.2500000   0.2500000   1.7500000  )
        11           Cu  tau(  11) = (  -0.2500000   1.2500000   1.7500000  )
        12           Cu  tau(  12) = (  -0.7500000   0.2500000   1.2500000  )
        13           Cu  tau(  13) = (  -0.2500000   0.7500000   1.2500000  )
        14           Cu  tau(  14) = (   0.2500000   0.2500000   1.2500000  )
        15           Cu  tau(  15) = (  -0.2500000  -0.2500000   1.2500000  )
        16           Cu  tau(  16) = (  -0.7500000   0.7500000   1.7500000  )
        17           O1  tau(  17) = (   0.0000000   0.0000000   0.0000000  )
        18           O   tau(  18) = (   0.5000000   0.5000000   0.5000000  )
        19           O   tau(  19) = (  -0.5000000   0.5000000   0.5000000  )
        20           O   tau(  20) = (  -0.5000000  -0.5000000   0.5000000  )
        21           O   tau(  21) = (   0.0000000   1.0000000   1.0000000  )
        22           O   tau(  22) = (   0.0000000   0.0000000   1.0000000  )
        23           O   tau(  23) = (  -1.0000000   0.0000000   1.0000000  )
        24           O   tau(  24) = (  -0.5000000   0.5000000   1.5000000  )

     number of k points=     3
                       cart. coord. in units 2pi/alat
        k(    1) = (   0.0000000   0.0000000   0.0000000), wk =   0.2500000
        k(    2) = (   0.0000000   0.2500000  -0.2500000), wk =   1.5000000
        k(    3) = (   0.0000000   0.0000000  -0.5000000), wk =   0.2500000

     Dense  grid:   193941 G-vectors     FFT dimensions: (  80,  80,  80)

     Smooth grid:    49181 G-vectors     FFT dimensions: (  50,  50,  50)

     Largest allocated arrays     est. size (Mb)     dimensions
        Kohn-Sham Wavefunctions         2.63 Mb     (   1538,  112)
        Atomic wavefunctions            3.00 Mb     (   1538,  128)
        NL pseudopotentials             6.38 Mb     (   1538,  272)
        Each V/rho on FFT grid          1.95 Mb     ( 128000)
        Each G-vector array             0.37 Mb     (  48486)
        G-vector shells                 0.01 Mb     (    939)
     Largest temporary arrays     est. size (Mb)     dimensions
        Auxiliary wavefunctions        10.51 Mb     (   1538,  448)
        Each subspace H/S matrix        3.06 Mb     ( 448, 448)
        Each <psi_i|beta_j> matrix      0.46 Mb     (    272,  112)
        Arrays for rho mixing          15.62 Mb     ( 128000,   8)

     The initial density is read from file :
     ./temp/cu2o.save/charge-density.dat

     Number of +U iterations with fixed ns =  0
     Starting occupations:
 --- enter write_ns ---
 LDA+U parameters:
U( 1)     =  0.00000000
alpha( 1) =  0.00000000
U( 2)     =  0.00000000
alpha( 2) = -0.02000000
U( 3)     =  0.00000000
alpha( 3) =  0.00000000
atom    1   Tr[ns(na)] =   9.77619
    eigenvalues: 
  0.903  0.996  0.996  0.997  0.997
    eigenvectors:
  0.000  0.267  0.194  0.279  0.260
  0.333  0.012  0.347  0.284  0.023
  0.333  0.319  0.040  0.018  0.289
  0.000  0.194  0.267  0.260  0.279
  0.333  0.208  0.151  0.159  0.148
    occupations:
  0.996  0.000  0.000  0.000  0.000
  0.000  0.965 -0.031  0.000  0.031
  0.000 -0.031  0.965  0.000  0.031
  0.000  0.000  0.000  0.996  0.000
  0.000  0.031  0.031  0.000  0.965
atom    2   Tr[ns(na)] =   9.77619
    eigenvalues: 
  0.903  0.996  0.996  0.997  0.997
    eigenvectors:
  0.000  0.381  0.080  0.218  0.320
  0.333  0.239  0.121  0.038  0.270
  0.333  0.003  0.356  0.299  0.008
  0.000  0.080  0.381  0.320  0.218
  0.333  0.297  0.062  0.125  0.183
    occupations:
  0.996  0.000  0.000  0.000  0.000
  0.000  0.965  0.031  0.000  0.031
  0.000  0.031  0.965  0.000 -0.031
  0.000  0.000  0.000  0.996  0.000
  0.000  0.031 -0.031  0.000  0.965
atom    3   Tr[ns(na)] =   9.77619
    eigenvalues: 
  0.903  0.996  0.996  0.997  0.997
    eigenvectors:
  0.000  0.395  0.066  0.150  0.388
  0.333  0.007  0.353  0.307  0.000
  0.333  0.224  0.135  0.068  0.239
  0.000  0.066  0.395  0.388  0.150
  0.333  0.308  0.051  0.086  0.222
    occupations:
  0.996  0.000  0.000  0.000  0.000
  0.000  0.965 -0.031  0.000 -0.031
  0.000 -0.031  0.965  0.000 -0.031
  0.000  0.000  0.000  0.996  0.000
  0.000 -0.031 -0.031  0.000  0.965
atom    4   Tr[ns(na)] =   9.77619
    eigenvalues: 
  0.903  0.996  0.996  0.997  0.997
    eigenvectors:
  0.000  0.346  0.115  0.404  0.135
  0.333  0.269  0.090  0.231  0.077
  0.333  0.000  0.359  0.000  0.307
  0.000  0.115  0.346  0.135  0.404
  0.333  0.269  0.090  0.231  0.077
    occupations:
  0.996  0.000  0.000  0.000  0.000
  0.000  0.965  0.031  0.000  0.031
  0.000  0.031  0.965  0.000 -0.031
  0.000  0.000  0.000  0.996  0.000
  0.000  0.031 -0.031  0.000  0.965
atom    5   Tr[ns(na)] =   9.77619
    eigenvalues: 
  0.903  0.996  0.996  0.997  0.997
    eigenvectors:
  0.000  0.346  0.115  0.404  0.135
  0.333  0.000  0.359  0.000  0.307
  0.333  0.269  0.090  0.231  0.077
  0.000  0.115  0.346  0.135  0.404
  0.333  0.269  0.090  0.231  0.077
    occupations:
  0.996  0.000  0.000  0.000  0.000
  0.000  0.965  0.031  0.000  0.031
  0.000  0.031  0.965  0.000 -0.031
  0.000  0.000  0.000  0.996  0.000
  0.000  0.031 -0.031  0.000  0.965
atom    6   Tr[ns(na)] =   9.77619
    eigenvalues: 
  0.903  0.996  0.996  0.997  0.997
    eigenvectors:
  0.000  0.346  0.115  0.404  0.135
  0.333  0.000  0.359  0.000  0.307
  0.333  0.269  0.090  0.231  0.077
  0.000  0.115  0.346  0.135  0.404
  0.333  0.269  0.090  0.231  0.077
    occupations:
  0.996  0.000  0.000  0.000  0.000
  0.000  0.965 -0.031  0.000 -0.031
  0.000 -0.031  0.965  0.000 -0.031
  0.000  0.000  0.000  0.996  0.000
  0.000 -0.031 -0.031  0.000  0.965
atom    7   Tr[ns(na)] =   9.77619
    eigenvalues: 
  0.903  0.996  0.996  0.997  0.997
    eigenvectors:
  0.000  0.346  0.115  0.404  0.135
  0.333  0.269  0.090  0.231  0.077
  0.333  0.000  0.359  0.000  0.307
  0.000  0.115  0.346  0.135  0.404
  0.333  0.269  0.090  0.231  0.077
    occupations:
  0.996  0.000  0.000  0.000  0.000
  0.000  0.965 -0.031  0.000  0.031
  0.000 -0.031  0.965  0.000  0.031
  0.000  0.000  0.000  0.996  0.000
  0.000  0.031  0.031  0.000  0.965
atom    8   Tr[ns(na)] =   9.77619
    eigenvalues: 
  0.903  0.996  0.996  0.997  0.997
    eigenvectors:
  0.000  0.000  0.461  0.000  0.539
  0.333  0.269  0.090  0.231  0.077
  0.333  0.269  0.090  0.231  0.077
  0.000  0.461  0.000  0.539  0.000
  0.333  0.000  0.359  0.000  0.307
    occupations:
  0.996  0.000  0.000  0.000  0.000
  0.000  0.965  0.031  0.000 -0.031
  0.000  0.031  0.965  0.000  0.031
  0.000  0.000  0.000  0.996  0.000
  0.000 -0.031  0.031  0.000  0.965
atom    9   Tr[ns(na)] =   9.77619
    eigenvalues: 
  0.903  0.996  0.996  0.997  0.997
    eigenvectors:
  0.000  0.028  0.433  0.539  0.000
  0.333  0.333  0.026  0.073  0.234
  0.333  0.184  0.175  0.080  0.227
  0.000  0.433  0.028  0.000  0.539
  0.333  0.022  0.337  0.307  0.000
    occupations:
  0.996  0.000  0.000  0.000  0.000
  0.000  0.965  0.031  0.000 -0.031
  0.000  0.031  0.965  0.000  0.031
  0.000  0.000  0.000  0.996  0.000
  0.000 -0.031  0.031  0.000  0.965
atom   10   Tr[ns(na)] =   9.77619
    eigenvalues: 
  0.903  0.996  0.996  0.997  0.997
    eigenvectors:
  0.000  0.346  0.115  0.404  0.135
  0.333  0.269  0.090  0.231  0.077
  0.333  0.000  0.359  0.000  0.307
  0.000  0.115  0.346  0.135  0.404
  0.333  0.269  0.090  0.231  0.077
    occupations:
  0.996  0.000  0.000  0.000  0.000
  0.000  0.965  0.031  0.000 -0.031
  0.000  0.031  0.965  0.000  0.031
  0.000  0.000  0.000  0.996  0.000
  0.000 -0.031  0.031  0.000  0.965
atom   11   Tr[ns(na)] =   9.77619
    eigenvalues: 
  0.903  0.996  0.996  0.997  0.997
    eigenvectors:
  0.000  0.346  0.115  0.404  0.135
  0.333  0.000  0.359  0.000  0.307
  0.333  0.269  0.090  0.231  0.077
  0.000  0.115  0.346  0.135  0.404
  0.333  0.269  0.090  0.231  0.077
    occupations:
  0.996  0.000  0.000  0.000  0.000
  0.000  0.965  0.031  0.000 -0.031
  0.000  0.031  0.965  0.000  0.031
  0.000  0.000  0.000  0.996  0.000
  0.000 -0.031  0.031  0.000  0.965
atom   12   Tr[ns(na)] =   9.77619
    eigenvalues: 
  0.903  0.996  0.996  0.997  0.997
    eigenvectors:
  0.000  0.346  0.115  0.404  0.135
  0.333  0.000  0.359  0.000  0.307
  0.333  0.269  0.090  0.231  0.077
  0.000  0.115  0.346  0.135  0.404
  0.333  0.269  0.090  0.231  0.077
    occupations:
  0.996  0.000  0.000  0.000  0.000
  0.000  0.965 -0.031  0.000  0.031
  0.000 -0.031  0.965  0.000  0.031
  0.000  0.000  0.000  0.996  0.000
  0.000  0.031  0.031  0.000  0.965
atom   13   Tr[ns(na)] =   9.77619
    eigenvalues: 
  0.903  0.996  0.996  0.997  0.997
    eigenvectors:
  0.000  0.346  0.115  0.404  0.135
  0.333  0.269  0.090  0.231  0.077
  0.333  0.000  0.359  0.000  0.307
  0.000  0.115  0.346  0.135  0.404
  0.333  0.269  0.090  0.231  0.077
    occupations:
  0.996  0.000  0.000  0.000  0.000
  0.000  0.965 -0.031  0.000 -0.031
  0.000 -0.031  0.965  0.000 -0.031
  0.000  0.000  0.000  0.996  0.000
  0.000 -0.031 -0.031  0.000  0.965
atom   14   Tr[ns(na)] =   9.77619
    eigenvalues: 
  0.903  0.996  0.996  0.997  0.997
    eigenvectors:
  0.000  0.000  0.461  0.000  0.539
  0.333  0.269  0.090  0.231  0.077
  0.333  0.269  0.090  0.231  0.077
  0.000  0.461  0.000  0.539  0.000
  0.333  0.000  0.359  0.000  0.307
    occupations:
  0.996  0.000  0.000  0.000  0.000
  0.000  0.965 -0.031  0.000  0.031
  0.000 -0.031  0.965  0.000  0.031
  0.000  0.000  0.000  0.996  0.000
  0.000  0.031  0.031  0.000  0.965
atom   15   Tr[ns(na)] =   9.77619
    eigenvalues: 
  0.903  0.996  0.996  0.997  0.997
    eigenvectors:
  0.000  0.000  0.461  0.000  0.539
  0.333  0.269  0.090  0.231  0.077
  0.333  0.269  0.090  0.231  0.077
  0.000  0.461  0.000  0.539  0.000
  0.333  0.000  0.359  0.000  0.307
    occupations:
  0.996  0.000  0.000  0.000  0.000
  0.000  0.965 -0.031  0.000 -0.031
  0.000 -0.031  0.965  0.000 -0.031
  0.000  0.000  0.000  0.996  0.000
  0.000 -0.031 -0.031  0.000  0.965
atom   16   Tr[ns(na)] =   9.77619
    eigenvalues: 
  0.903  0.996  0.996  0.997  0.997
    eigenvectors:
  0.000  0.000  0.461  0.000  0.539
  0.333  0.269  0.090  0.231  0.077
  0.333  0.269  0.090  0.231  0.077
  0.000  0.461  0.000  0.539  0.000
  0.333  0.000  0.359  0.000  0.307
    occupations:
  0.996  0.000  0.000  0.000  0.000
  0.000  0.965  0.031  0.000  0.031
  0.000  0.031  0.965  0.000 -0.031
  0.000  0.000  0.000  0.996  0.000
  0.000  0.031 -0.031  0.000  0.965
atom   17   Tr[ns(na)] =   5.74458
    eigenvalues: 
  0.957  0.957  0.957
    eigenvectors:
  0.247  0.218  0.534
  0.655  0.003  0.342
  0.098  0.779  0.123
    occupations:
  0.957  0.000  0.000
  0.000  0.957  0.000
  0.000  0.000  0.957
atom   18   Tr[ns(na)] =   5.74458
    eigenvalues: 
  0.957  0.957  0.957
    eigenvectors:
  0.408  0.259  0.333
  0.577  0.089  0.333
  0.015  0.652  0.333
    occupations:
  0.957  0.000  0.000
  0.000  0.957  0.000
  0.000  0.000  0.957
atom   19   Tr[ns(na)] =   5.74458
    eigenvalues: 
  0.957  0.957  0.957
    eigenvectors:
  0.009  0.658  0.333
  0.431  0.236  0.333
  0.561  0.106  0.333
    occupations:
  0.957  0.000  0.000
  0.000  0.957  0.000
  0.000  0.000  0.957
atom   20   Tr[ns(na)] =   5.74458
    eigenvalues: 
  0.957  0.957  0.957
    eigenvectors:
  0.255  0.411  0.333
  0.092  0.575  0.333
  0.653  0.014  0.333
    occupations:
  0.957  0.000  0.000
  0.000  0.957  0.000
  0.000  0.000  0.957
atom   21   Tr[ns(na)] =   5.74458
    eigenvalues: 
  0.957  0.957  0.957
    eigenvectors:
  0.157  0.843  0.000
  0.000  0.000  1.000
  0.843  0.157  0.000
    occupations:
  0.957  0.000  0.000
  0.000  0.957  0.000
  0.000  0.000  0.957
atom   22   Tr[ns(na)] =   5.74458
    eigenvalues: 
  0.957  0.957  0.957
    eigenvectors:
  0.000  0.000  1.000
  0.235  0.765  0.000
  0.765  0.235  0.000
    occupations:
  0.957  0.000  0.000
  0.000  0.957  0.000
  0.000  0.000  0.957
atom   23   Tr[ns(na)] =   5.74458
    eigenvalues: 
  0.957  0.957  0.957
    eigenvectors:
  0.251  0.749  0.000
  0.749  0.251  0.000
  0.000  0.000  1.000
    occupations:
  0.957  0.000  0.000
  0.000  0.957  0.000
  0.000  0.000  0.957
atom   24   Tr[ns(na)] =   5.74458
    eigenvalues: 
  0.957  0.957  0.957
    eigenvectors:
  0.165  0.501  0.333
  0.667  0.000  0.333
  0.168  0.499  0.333
    occupations:
  0.957  0.000  0.000
  0.000  0.957  0.000
  0.000  0.000  0.957
N of occupied +U levels = 202.3757139
 --- exit write_ns ---
 Atomic wfc used for LDA+U Projector are NOT orthogonalized
     Starting wfc from file

     total cpu time spent up to now is        2.9 secs

     per-process dynamical memory:    45.4 Mb

     Self-consistent Calculation

     iteration #  1     ecut=    30.00 Ry     beta=0.30
     Davidson diagonalization with overlap
     ethr =  2.33E-11,  avg # of iterations =  4.7
 --- enter write_ns ---
 LDA+U parameters:
U( 1)     =  0.00000000
alpha( 1) =  0.00000000
U( 2)     =  0.00000000
alpha( 2) = -0.02000000
U( 3)     =  0.00000000
alpha( 3) =  0.00000000
atom    1   Tr[ns(na)] =   9.77619
    eigenvalues: 
  0.903  0.996  0.996  0.997  0.997
    eigenvectors:
  0.000  0.338  0.123  0.206  0.333
  0.333  0.000  0.359  0.301  0.006
  0.333  0.275  0.084  0.042  0.265
  0.000  0.123  0.338  0.333  0.206
  0.333  0.263  0.096  0.118  0.190
    occupations:
  0.996  0.000  0.000  0.000  0.000
  0.000  0.965 -0.031  0.000  0.031
  0.000 -0.031  0.965  0.000  0.031
  0.000  0.000  0.000  0.996  0.000
  0.000  0.031  0.031  0.000  0.965
atom    2   Tr[ns(na)] =   9.77619
    eigenvalues: 
  0.903  0.996  0.996  0.997  0.997
    eigenvectors:
  0.000  0.381  0.080  0.229  0.310
  0.333  0.239  0.120  0.034  0.274
  0.333  0.003  0.356  0.297  0.011
  0.000  0.080  0.381  0.310  0.229
  0.333  0.297  0.062  0.131  0.177
    occupations:
  0.996  0.000  0.000  0.000  0.000
  0.000  0.965  0.031  0.000  0.031
  0.000  0.031  0.965  0.000 -0.031
  0.000  0.000  0.000  0.996  0.000
  0.000  0.031 -0.031  0.000  0.965
atom    3   Tr[ns(na)] =   9.77619
    eigenvalues: 
  0.903  0.996  0.996  0.997  0.997
    eigenvectors:
  0.000  0.404  0.057  0.175  0.364
  0.333  0.010  0.350  0.305  0.002
  0.333  0.215  0.144  0.056  0.251
  0.000  0.057  0.404  0.364  0.175
  0.333  0.315  0.045  0.100  0.208
    occupations:
  0.996  0.000  0.000  0.000  0.000
  0.000  0.965 -0.031  0.000 -0.031
  0.000 -0.031  0.965  0.000 -0.031
  0.000  0.000  0.000  0.996  0.000
  0.000 -0.031 -0.031  0.000  0.965
atom    4   Tr[ns(na)] =   9.77618
    eigenvalues: 
  0.903  0.996  0.996  0.997  0.997
    eigenvectors:
  0.000  0.115  0.346  0.404  0.135
  0.333  0.090  0.269  0.231  0.077
  0.333  0.359  0.000  0.000  0.308
  0.000  0.346  0.115  0.135  0.404
  0.333  0.090  0.269  0.231  0.077
    occupations:
  0.996  0.000  0.000  0.000  0.000
  0.000  0.965  0.031  0.000  0.031
  0.000  0.031  0.965  0.000 -0.031
  0.000  0.000  0.000  0.996  0.000
  0.000  0.031 -0.031  0.000  0.965
atom    5   Tr[ns(na)] =   9.77618
    eigenvalues: 
  0.903  0.996  0.996  0.997  0.997
    eigenvectors:
  0.000  0.115  0.346  0.404  0.135
  0.333  0.359  0.000  0.000  0.308
  0.333  0.090  0.269  0.231  0.077
  0.000  0.346  0.115  0.135  0.404
  0.333  0.090  0.269  0.231  0.077
    occupations:
  0.996  0.000  0.000  0.000  0.000
  0.000  0.965  0.031  0.000  0.031
  0.000  0.031  0.965  0.000 -0.031
  0.000  0.000  0.000  0.996  0.000
  0.000  0.031 -0.031  0.000  0.965
atom    6   Tr[ns(na)] =   9.77618
    eigenvalues: 
  0.903  0.996  0.996  0.997  0.997
    eigenvectors:
  0.000  0.115  0.346  0.404  0.135
  0.333  0.359  0.000  0.000  0.308
  0.333  0.090  0.269  0.231  0.077
  0.000  0.346  0.115  0.135  0.404
  0.333  0.090  0.269  0.231  0.077
    occupations:
  0.996  0.000  0.000  0.000  0.000
  0.000  0.965 -0.031  0.000 -0.031
  0.000 -0.031  0.965  0.000 -0.031
  0.000  0.000  0.000  0.996  0.000
  0.000 -0.031 -0.031  0.000  0.965
atom    7   Tr[ns(na)] =   9.77618
    eigenvalues: 
  0.903  0.996  0.996  0.997  0.997
    eigenvectors:
  0.000  0.115  0.346  0.404  0.135
  0.333  0.090  0.269  0.231  0.077
  0.333  0.359  0.000  0.000  0.308
  0.000  0.346  0.115  0.135  0.404
  0.333  0.090  0.269  0.231  0.077
    occupations:
  0.996  0.000  0.000  0.000  0.000
  0.000  0.965 -0.031  0.000  0.031
  0.000 -0.031  0.965  0.000  0.031
  0.000  0.000  0.000  0.996  0.000
  0.000  0.031  0.031  0.000  0.965
atom    8   Tr[ns(na)] =   9.77618
    eigenvalues: 
  0.903  0.996  0.996  0.997  0.997
    eigenvectors:
  0.000  0.461  0.000  0.000  0.539
  0.333  0.090  0.269  0.231  0.077
  0.333  0.090  0.269  0.231  0.077
  0.000  0.000  0.461  0.539  0.000
  0.333  0.359  0.000  0.000  0.308
    occupations:
  0.996  0.000  0.000  0.000  0.000
  0.000  0.965  0.031  0.000 -0.031
  0.000  0.031  0.965  0.000  0.031
  0.000  0.000  0.000  0.996  0.000
  0.000 -0.031  0.031  0.000  0.965
atom    9   Tr[ns(na)] =   9.77619
    eigenvalues: 
  0.903  0.996  0.996  0.997  0.997
    eigenvectors:
  0.000  0.024  0.437  0.537  0.001
  0.333  0.329  0.030  0.064  0.243
  0.333  0.190  0.169  0.090  0.217
  0.000  0.437  0.024  0.001  0.537
  0.333  0.019  0.340  0.307  0.001
    occupations:
  0.996  0.000  0.000  0.000  0.000
  0.000  0.965  0.031  0.000 -0.031
  0.000  0.031  0.965  0.000  0.031
  0.000  0.000  0.000  0.996  0.000
  0.000 -0.031  0.031  0.000  0.965
atom   10   Tr[ns(na)] =   9.77618
    eigenvalues: 
  0.903  0.996  0.996  0.997  0.997
    eigenvectors:
  0.000  0.115  0.346  0.404  0.135
  0.333  0.090  0.269  0.231  0.077
  0.333  0.359  0.000  0.000  0.308
  0.000  0.346  0.115  0.135  0.404
  0.333  0.090  0.269  0.231  0.077
    occupations:
  0.996  0.000  0.000  0.000  0.000
  0.000  0.965  0.031  0.000 -0.031
  0.000  0.031  0.965  0.000  0.031
  0.000  0.000  0.000  0.996  0.000
  0.000 -0.031  0.031  0.000  0.965
atom   11   Tr[ns(na)] =   9.77618
    eigenvalues: 
  0.903  0.996  0.996  0.997  0.997
    eigenvectors:
  0.000  0.115  0.346  0.404  0.135
  0.333  0.359  0.000  0.000  0.308
  0.333  0.090  0.269  0.231  0.077
  0.000  0.346  0.115  0.135  0.404
  0.333  0.090  0.269  0.231  0.077
    occupations:
  0.996  0.000  0.000  0.000  0.000
  0.000  0.965  0.031  0.000 -0.031
  0.000  0.031  0.965  0.000  0.031
  0.000  0.000  0.000  0.996  0.000
  0.000 -0.031  0.031  0.000  0.965
atom   12   Tr[ns(na)] =   9.77618
    eigenvalues: 
  0.903  0.996  0.996  0.997  0.997
    eigenvectors:
  0.000  0.115  0.346  0.404  0.135
  0.333  0.359  0.000  0.000  0.308
  0.333  0.090  0.269  0.231  0.077
  0.000  0.346  0.115  0.135  0.404
  0.333  0.090  0.269  0.231  0.077
    occupations:
  0.996  0.000  0.000  0.000  0.000
  0.000  0.965 -0.031  0.000  0.031
  0.000 -0.031  0.965  0.000  0.031
  0.000  0.000  0.000  0.996  0.000
  0.000  0.031  0.031  0.000  0.965
atom   13   Tr[ns(na)] =   9.77618
    eigenvalues: 
  0.903  0.996  0.996  0.997  0.997
    eigenvectors:
  0.000  0.115  0.346  0.404  0.135
  0.333  0.090  0.269  0.231  0.077
  0.333  0.359  0.000  0.000  0.308
  0.000  0.346  0.115  0.135  0.404
  0.333  0.090  0.269  0.231  0.077
    occupations:
  0.996  0.000  0.000  0.000  0.000
  0.000  0.965 -0.031  0.000 -0.031
  0.000 -0.031  0.965  0.000 -0.031
  0.000  0.000  0.000  0.996  0.000
  0.000 -0.031 -0.031  0.000  0.965
atom   14   Tr[ns(na)] =   9.77618
    eigenvalues: 
  0.903  0.996  0.996  0.997  0.997
    eigenvectors:
  0.000  0.461  0.000  0.000  0.539
  0.333  0.090  0.269  0.231  0.077
  0.333  0.090  0.269  0.231  0.077
  0.000  0.000  0.461  0.539  0.000
  0.333  0.359  0.000  0.000  0.308
    occupations:
  0.996  0.000  0.000  0.000  0.000
  0.000  0.965 -0.031  0.000  0.031
  0.000 -0.031  0.965  0.000  0.031
  0.000  0.000  0.000  0.996  0.000
  0.000  0.031  0.031  0.000  0.965
atom   15   Tr[ns(na)] =   9.77618
    eigenvalues: 
  0.903  0.996  0.996  0.997  0.997
    eigenvectors:
  0.000  0.461  0.000  0.000  0.539
  0.333  0.090  0.269  0.231  0.077
  0.333  0.090  0.269  0.231  0.077
  0.000  0.000  0.461  0.539  0.000
  0.333  0.359  0.000  0.000  0.308
    occupations:
  0.996  0.000  0.000  0.000  0.000
  0.000  0.965 -0.031  0.000 -0.031
  0.000 -0.031  0.965  0.000 -0.031
  0.000  0.000  0.000  0.996  0.000
  0.000 -0.031 -0.031  0.000  0.965
atom   16   Tr[ns(na)] =   9.77618
    eigenvalues: 
  0.903  0.996  0.996  0.997  0.997
    eigenvectors:
  0.000  0.461  0.000  0.000  0.539
  0.333  0.090  0.269  0.231  0.077
  0.333  0.090  0.269  0.231  0.077
  0.000  0.000  0.461  0.539  0.000
  0.333  0.359  0.000  0.000  0.308
    occupations:
  0.996  0.000  0.000  0.000  0.000
  0.000  0.965  0.031  0.000  0.031
  0.000  0.031  0.965  0.000 -0.031
  0.000  0.000  0.000  0.996  0.000
  0.000  0.031 -0.031  0.000  0.965
atom   17   Tr[ns(na)] =   5.74579
    eigenvalues: 
  0.958  0.958  0.958
    eigenvectors:
  0.143  0.270  0.587
  0.761  0.006  0.233
  0.096  0.724  0.180
    occupations:
  0.958  0.000  0.000
  0.000  0.958  0.000
  0.000  0.000  0.958
atom   18   Tr[ns(na)] =   5.74454
    eigenvalues: 
  0.957  0.957  0.957
    eigenvectors:
  0.333  0.412  0.255
  0.333  0.575  0.092
  0.333  0.013  0.653
    occupations:
  0.957  0.000  0.000
  0.000  0.957  0.000
  0.000  0.000  0.957
atom   19   Tr[ns(na)] =   5.74454
    eigenvalues: 
  0.957  0.957  0.957
    eigenvectors:
  0.333  0.016  0.651
  0.333  0.405  0.261
  0.333  0.579  0.087
    occupations:
  0.957  0.000  0.000
  0.000  0.957  0.000
  0.000  0.000  0.957
atom   20   Tr[ns(na)] =   5.74454
    eigenvalues: 
  0.957  0.957  0.957
    eigenvectors:
  0.333  0.380  0.287
  0.333  0.024  0.643
  0.333  0.596  0.071
    occupations:
  0.957  0.000  0.000
  0.000  0.957  0.000
  0.000  0.000  0.957
atom   21   Tr[ns(na)] =   5.74454
    eigenvalues: 
  0.957  0.957  0.957
    eigenvectors:
  0.000  0.138  0.862
  1.000  0.000  0.000
  0.000  0.862  0.138
    occupations:
  0.957  0.000  0.000
  0.000  0.957  0.000
  0.000  0.000  0.957
atom   22   Tr[ns(na)] =   5.74454
    eigenvalues: 
  0.957  0.957  0.957
    eigenvectors:
  1.000  0.000  0.000
  0.000  0.683  0.317
  0.000  0.317  0.683
    occupations:
  0.957  0.000  0.000
  0.000  0.957  0.000
  0.000  0.000  0.957
atom   23   Tr[ns(na)] =   5.74454
    eigenvalues: 
  0.957  0.957  0.957
    eigenvectors:
  0.000  0.421  0.579
  0.000  0.579  0.421
  1.000  0.000  0.000
    occupations:
  0.957  0.000  0.000
  0.000  0.957  0.000
  0.000  0.000  0.957
atom   24   Tr[ns(na)] =   5.74454
    eigenvalues: 
  0.957  0.957  0.957
    eigenvectors:
  0.333  0.186  0.481
  0.333  0.666  0.001
  0.333  0.148  0.518
    occupations:
  0.957  0.000  0.000
  0.000  0.957  0.000
  0.000  0.000  0.957
N of occupied +U levels = 202.3764941
 --- exit write_ns ---

     total cpu time spent up to now is       18.6 secs

     total energy              =   -1657.03304236 Ry
     Harris-Foulkes estimate   =   -1657.03304359 Ry
     estimated scf accuracy    <       0.00000265 Ry

     iteration #  2     ecut=    30.00 Ry     beta=0.30
     Davidson diagonalization with overlap
     ethr =  1.18E-09,  avg # of iterations =  3.0

     total cpu time spent up to now is       29.6 secs

     total energy              =   -1657.03304295 Ry
     Harris-Foulkes estimate   =   -1657.03304317 Ry
     estimated scf accuracy    <       0.00000066 Ry

     iteration #  3     ecut=    30.00 Ry     beta=0.30
     Davidson diagonalization with overlap
     ethr =  2.94E-10,  avg # of iterations =  3.3

     total cpu time spent up to now is       40.3 secs

     total energy              =   -1657.03304306 Ry
     Harris-Foulkes estimate   =   -1657.03304306 Ry
     estimated scf accuracy    <       0.00000002 Ry

     iteration #  4     ecut=    30.00 Ry     beta=0.30
     Davidson diagonalization with overlap
     ethr =  1.01E-11,  avg # of iterations =  4.0

     total cpu time spent up to now is       51.8 secs

     End of self-consistent calculation
 --- enter write_ns ---
 LDA+U parameters:
U( 1)     =  0.00000000
alpha( 1) =  0.00000000
U( 2)     =  0.00000000
alpha( 2) = -0.02000000
U( 3)     =  0.00000000
alpha( 3) =  0.00000000
atom    1   Tr[ns(na)] =   9.77616
    eigenvalues: 
  0.903  0.996  0.996  0.997  0.997
    eigenvectors:
  0.000  0.305  0.156  0.318  0.220
  0.333  0.003  0.356  0.271  0.037
  0.333  0.298  0.061  0.009  0.299
  0.000  0.156  0.305  0.220  0.318
  0.333  0.237  0.121  0.182  0.126
    occupations:
  0.996  0.000  0.000  0.000  0.000
  0.000  0.965 -0.031  0.000  0.031
  0.000 -0.031  0.965  0.000  0.031
  0.000  0.000  0.000  0.996  0.000
  0.000  0.031  0.031  0.000  0.965
atom    2   Tr[ns(na)] =   9.77616
    eigenvalues: 
  0.903  0.996  0.996  0.997  0.997
    eigenvectors:
  0.000  0.387  0.075  0.232  0.306
  0.333  0.233  0.125  0.032  0.275
  0.333  0.004  0.355  0.296  0.011
  0.000  0.075  0.387  0.306  0.232
  0.333  0.301  0.058  0.133  0.175
    occupations:
  0.996  0.000  0.000  0.000  0.000
  0.000  0.965  0.031  0.000  0.031
  0.000  0.031  0.965  0.000 -0.031
  0.000  0.000  0.000  0.996  0.000
  0.000  0.031 -0.031  0.000  0.965
atom    3   Tr[ns(na)] =   9.77616
    eigenvalues: 
  0.903  0.996  0.996  0.997  0.997
    eigenvectors:
  0.000  0.408  0.054  0.164  0.374
  0.333  0.011  0.348  0.307  0.001
  0.333  0.210  0.149  0.061  0.247
  0.000  0.054  0.408  0.374  0.164
  0.333  0.317  0.042  0.094  0.214
    occupations:
  0.996  0.000  0.000  0.000  0.000
  0.000  0.965 -0.031  0.000 -0.031
  0.000 -0.031  0.965  0.000 -0.031
  0.000  0.000  0.000  0.996  0.000
  0.000 -0.031 -0.031  0.000  0.965
atom    4   Tr[ns(na)] =   9.77620
    eigenvalues: 
  0.903  0.996  0.996  0.997  0.997
    eigenvectors:
  0.000  0.346  0.115  0.404  0.135
  0.333  0.269  0.090  0.231  0.077
  0.333  0.000  0.359  0.000  0.308
  0.000  0.115  0.346  0.135  0.404
  0.333  0.269  0.090  0.231  0.077
    occupations:
  0.996  0.000  0.000  0.000  0.000
  0.000  0.965  0.031  0.000  0.031
  0.000  0.031  0.965  0.000 -0.031
  0.000  0.000  0.000  0.996  0.000
  0.000  0.031 -0.031  0.000  0.965
atom    5   Tr[ns(na)] =   9.77620
    eigenvalues: 
  0.903  0.996  0.996  0.997  0.997
    eigenvectors:
  0.000  0.346  0.115  0.404  0.135
  0.333  0.000  0.359  0.000  0.308
  0.333  0.269  0.090  0.231  0.077
  0.000  0.115  0.346  0.135  0.404
  0.333  0.269  0.090  0.231  0.077
    occupations:
  0.996  0.000  0.000  0.000  0.000
  0.000  0.965  0.031  0.000  0.031
  0.000  0.031  0.965  0.000 -0.031
  0.000  0.000  0.000  0.996  0.000
  0.000  0.031 -0.031  0.000  0.965
atom    6   Tr[ns(na)] =   9.77620
    eigenvalues: 
  0.903  0.996  0.996  0.997  0.997
    eigenvectors:
  0.000  0.346  0.115  0.404  0.135
  0.333  0.000  0.359  0.000  0.308
  0.333  0.269  0.090  0.231  0.077
  0.000  0.115  0.346  0.135  0.404
  0.333  0.269  0.090  0.231  0.077
    occupations:
  0.996  0.000  0.000  0.000  0.000
  0.000  0.965 -0.031  0.000 -0.031
  0.000 -0.031  0.965  0.000 -0.031
  0.000  0.000  0.000  0.996  0.000
  0.000 -0.031 -0.031  0.000  0.965
atom    7   Tr[ns(na)] =   9.77620
    eigenvalues: 
  0.903  0.996  0.996  0.997  0.997
    eigenvectors:
  0.000  0.346  0.115  0.404  0.135
  0.333  0.269  0.090  0.231  0.077
  0.333  0.000  0.359  0.000  0.308
  0.000  0.115  0.346  0.135  0.404
  0.333  0.269  0.090  0.231  0.077
    occupations:
  0.996  0.000  0.000  0.000  0.000
  0.000  0.965 -0.031  0.000  0.031
  0.000 -0.031  0.965  0.000  0.031
  0.000  0.000  0.000  0.996  0.000
  0.000  0.031  0.031  0.000  0.965
atom    8   Tr[ns(na)] =   9.77620
    eigenvalues: 
  0.903  0.996  0.996  0.997  0.997
    eigenvectors:
  0.000  0.000  0.461  0.000  0.539
  0.333  0.269  0.090  0.231  0.077
  0.333  0.269  0.090  0.231  0.077
  0.000  0.461  0.000  0.539  0.000
  0.333  0.000  0.359  0.000  0.308
    occupations:
  0.996  0.000  0.000  0.000  0.000
  0.000  0.965  0.031  0.000 -0.031
  0.000  0.031  0.965  0.000  0.031
  0.000  0.000  0.000  0.996  0.000
  0.000 -0.031  0.031  0.000  0.965
atom    9   Tr[ns(na)] =   9.77616
    eigenvalues: 
  0.903  0.996  0.996  0.997  0.997
    eigenvectors:
  0.000  0.028  0.434  0.533  0.006
  0.333  0.332  0.027  0.051  0.256
  0.333  0.185  0.174  0.106  0.202
  0.000  0.434  0.028  0.006  0.533
  0.333  0.022  0.337  0.305  0.003
    occupations:
  0.996  0.000  0.000  0.000  0.000
  0.000  0.965  0.031  0.000 -0.031
  0.000  0.031  0.965  0.000  0.031
  0.000  0.000  0.000  0.996  0.000
  0.000 -0.031  0.031  0.000  0.965
atom   10   Tr[ns(na)] =   9.77620
    eigenvalues: 
  0.903  0.996  0.996  0.997  0.997
    eigenvectors:
  0.000  0.346  0.115  0.404  0.135
  0.333  0.269  0.090  0.231  0.077
  0.333  0.000  0.359  0.000  0.308
  0.000  0.115  0.346  0.135  0.404
  0.333  0.269  0.090  0.231  0.077
    occupations:
  0.996  0.000  0.000  0.000  0.000
  0.000  0.965  0.031  0.000 -0.031
  0.000  0.031  0.965  0.000  0.031
  0.000  0.000  0.000  0.996  0.000
  0.000 -0.031  0.031  0.000  0.965
atom   11   Tr[ns(na)] =   9.77620
    eigenvalues: 
  0.903  0.996  0.996  0.997  0.997
    eigenvectors:
  0.000  0.346  0.115  0.404  0.135
  0.333  0.000  0.359  0.000  0.308
  0.333  0.269  0.090  0.231  0.077
  0.000  0.115  0.346  0.135  0.404
  0.333  0.269  0.090  0.231  0.077
    occupations:
  0.996  0.000  0.000  0.000  0.000
  0.000  0.965  0.031  0.000 -0.031
  0.000  0.031  0.965  0.000  0.031
  0.000  0.000  0.000  0.996  0.000
  0.000 -0.031  0.031  0.000  0.965
atom   12   Tr[ns(na)] =   9.77620
    eigenvalues: 
  0.903  0.996  0.996  0.997  0.997
    eigenvectors:
  0.000  0.346  0.115  0.404  0.135
  0.333  0.000  0.359  0.000  0.308
  0.333  0.269  0.090  0.231  0.077
  0.000  0.115  0.346  0.135  0.404
  0.333  0.269  0.090  0.231  0.077
    occupations:
  0.996  0.000  0.000  0.000  0.000
  0.000  0.965 -0.031  0.000  0.031
  0.000 -0.031  0.965  0.000  0.031
  0.000  0.000  0.000  0.996  0.000
  0.000  0.031  0.031  0.000  0.965
atom   13   Tr[ns(na)] =   9.77620
    eigenvalues: 
  0.903  0.996  0.996  0.997  0.997
    eigenvectors:
  0.000  0.346  0.115  0.404  0.135
  0.333  0.269  0.090  0.231  0.077
  0.333  0.000  0.359  0.000  0.308
  0.000  0.115  0.346  0.135  0.404
  0.333  0.269  0.090  0.231  0.077
    occupations:
  0.996  0.000  0.000  0.000  0.000
  0.000  0.965 -0.031  0.000 -0.031
  0.000 -0.031  0.965  0.000 -0.031
  0.000  0.000  0.000  0.996  0.000
  0.000 -0.031 -0.031  0.000  0.965
atom   14   Tr[ns(na)] =   9.77620
    eigenvalues: 
  0.903  0.996  0.996  0.997  0.997
    eigenvectors:
  0.000  0.000  0.461  0.000  0.539
  0.333  0.269  0.090  0.231  0.077
  0.333  0.269  0.090  0.231  0.077
  0.000  0.461  0.000  0.539  0.000
  0.333  0.000  0.359  0.000  0.308
    occupations:
  0.996  0.000  0.000  0.000  0.000
  0.000  0.965 -0.031  0.000  0.031
  0.000 -0.031  0.965  0.000  0.031
  0.000  0.000  0.000  0.996  0.000
  0.000  0.031  0.031  0.000  0.965
atom   15   Tr[ns(na)] =   9.77620
    eigenvalues: 
  0.903  0.996  0.996  0.997  0.997
    eigenvectors:
  0.000  0.000  0.461  0.000  0.539
  0.333  0.269  0.090  0.231  0.077
  0.333  0.269  0.090  0.231  0.077
  0.000  0.461  0.000  0.539  0.000
  0.333  0.000  0.359  0.000  0.308
    occupations:
  0.996  0.000  0.000  0.000  0.000
  0.000  0.965 -0.031  0.000 -0.031
  0.000 -0.031  0.965  0.000 -0.031
  0.000  0.000  0.000  0.996  0.000
  0.000 -0.031 -0.031  0.000  0.965
atom   16   Tr[ns(na)] =   9.77620
    eigenvalues: 
  0.903  0.996  0.996  0.997  0.997
    eigenvectors:
  0.000  0.000  0.461  0.000  0.539
  0.333  0.269  0.090  0.231  0.077
  0.333  0.269  0.090  0.231  0.077
  0.000  0.461  0.000  0.539  0.000
  0.333  0.000  0.359  0.000  0.308
    occupations:
  0.996  0.000  0.000  0.000  0.000
  0.000  0.965  0.031  0.000  0.031
  0.000  0.031  0.965  0.000 -0.031
  0.000  0.000  0.000  0.996  0.000
  0.000  0.031 -0.031  0.000  0.965
atom   17   Tr[ns(na)] =   5.74507
    eigenvalues: 
  0.958  0.958  0.958
    eigenvectors:
  0.128  0.332  0.540
  0.620  0.056  0.324
  0.252  0.612  0.136
    occupations:
  0.958  0.000  0.000
  0.000  0.958  0.000
  0.000  0.000  0.958
atom   18   Tr[ns(na)] =   5.74458
    eigenvalues: 
  0.957  0.957  0.957
    eigenvectors:
  0.442  0.225  0.333
  0.552  0.115  0.333
  0.006  0.661  0.333
    occupations:
  0.957  0.000  0.000
  0.000  0.957  0.000
  0.000  0.000  0.957
atom   19   Tr[ns(na)] =   5.74458
    eigenvalues: 
  0.957  0.957  0.957
    eigenvectors:
  0.017  0.650  0.333
  0.400  0.266  0.333
  0.583  0.084  0.333
    occupations:
  0.957  0.000  0.000
  0.000  0.957  0.000
  0.000  0.000  0.957
atom   20   Tr[ns(na)] =   5.74458
    eigenvalues: 
  0.957  0.957  0.957
    eigenvectors:
  0.247  0.420  0.333
  0.098  0.569  0.333
  0.655  0.011  0.333
    occupations:
  0.957  0.000  0.000
  0.000  0.957  0.000
  0.000  0.000  0.957
atom   21   Tr[ns(na)] =   5.74458
    eigenvalues: 
  0.957  0.957  0.957
    eigenvectors:
  0.303  0.697  0.000
  0.000  0.000  1.000
  0.697  0.303  0.000
    occupations:
  0.957  0.000  0.000
  0.000  0.957  0.000
  0.000  0.000  0.957
atom   22   Tr[ns(na)] =   5.74458
    eigenvalues: 
  0.957  0.957  0.957
    eigenvectors:
  0.000  0.000  1.000
  0.254  0.746  0.000
  0.746  0.254  0.000
    occupations:
  0.957  0.000  0.000
  0.000  0.957  0.000
  0.000  0.000  0.957
atom   23   Tr[ns(na)] =   5.74458
    eigenvalues: 
  0.957  0.957  0.957
    eigenvectors:
  0.175  0.825  0.000
  0.825  0.175  0.000
  0.000  0.000  1.000
    occupations:
  0.957  0.000  0.000
  0.000  0.957  0.000
  0.000  0.000  0.957
atom   24   Tr[ns(na)] =   5.74458
    eigenvalues: 
  0.957  0.957  0.957
    eigenvectors:
  0.170  0.497  0.333
  0.667  0.000  0.333
  0.163  0.503  0.333
    occupations:
  0.957  0.000  0.000
  0.000  0.957  0.000
  0.000  0.000  0.957
N of occupied +U levels = 202.3761164
 --- exit write_ns ---

          k = 0.0000 0.0000 0.0000 (  6099 PWs)   bands (ev):

   -11.0915 -10.7486 -10.7486 -10.7486 -10.7486 -10.7486 -10.7438 -10.4502
     1.6638   1.6638   1.6638   1.6677   1.6677   1.6677   1.7584   1.7584
     1.7584   2.7381   2.7381   2.7381   2.7411   2.7411   2.7411   3.3456
     3.3456   3.3456   3.3484   3.3484   3.3484   3.9955   4.0874   4.0874
     4.0874   5.6249   5.6249   5.6738   5.6738   5.6738   5.6739   5.6739
     5.6739   5.7457   5.7457   5.7457   5.8835   5.8835   5.8835   5.8835
     5.8835   5.8835   6.2973   6.2973   6.2973   6.2973   6.2974   6.2974
     6.3053   6.3053   6.3053   6.3053   6.3053   6.3053   6.3715   6.3715
     6.3715   6.3715   6.3715   6.3715   6.5157   6.5157   6.6191   6.6191
     6.6191   6.6191   6.6192   6.6192   6.6314   6.6314   6.6314   6.6747
     6.6747   6.6747   6.6817   6.6817   6.6817   6.6817   6.6817   6.6817
     6.9905   6.9905   6.9905   6.9906   6.9906   6.9906   6.9953   6.9953
     6.9953   7.2260   7.2260   7.2260   7.2263   7.2263   7.2263   7.8157
     7.8157   7.8157   7.8160   7.8160   7.8161   8.4049   8.4049   8.4049

          k = 0.0000 0.2500-0.2500 (  6164 PWs)   bands (ev):

   -10.9247 -10.9232 -10.8516 -10.8500 -10.6447 -10.6432 -10.6030 -10.6013
     1.7199   1.7235   1.7804   1.7820   2.0180   2.0188   2.0754   2.0769
     2.0902   2.0933   2.4205   2.4232   2.6785   2.6805   3.1202   3.1233
     3.1729   3.1743   3.2607   3.2619   3.3311   3.3335   3.6484   3.6513
     4.8281   4.8281   5.4177   5.4177   5.5578   5.5579   5.7611   5.7611
     5.7841   5.7842   5.8235   5.8237   6.0311   6.0313   6.0549   6.0549
     6.1024   6.1026   6.1422   6.1423   6.2590   6.2592   6.2810   6.2811
     6.3369   6.3370   6.3657   6.3657   6.4204   6.4204   6.4219   6.4220
     6.4394   6.4394   6.4454   6.4455   6.4627   6.4628   6.5238   6.5239
     6.5401   6.5402   6.6115   6.6115   6.7153   6.7153   6.7163   6.7164
     6.7569   6.7570   6.7704   6.7704   6.7886   6.7886   6.8103   6.8104
     6.8109   6.8110   6.8241   6.8241   6.9232   6.9234   6.9557   6.9559
     6.9878   6.9880   7.2190   7.2191   7.2679   7.2680   7.3798   7.3800
     7.7340   7.7343   7.8910   7.8911   7.8975   7.8978   8.1543   8.1545

          k = 0.0000 0.0000-0.5000 (  6098 PWs)   bands (ev):

   -10.9353 -10.7675 -10.7675 -10.7675 -10.7674 -10.7674 -10.7627 -10.5184
     1.8541   1.8541   1.8541   2.3385   2.3385   2.3385   2.3418   2.3418
     2.3418   2.3959   2.3959   2.3959   2.3991   2.3991   2.3992   3.0103
     3.0103   3.0103   3.0133   3.0133   3.0133   3.2555   3.2555   3.2555
     5.3201   5.3201   5.3201   5.3201   5.3201   5.3202   5.4638   5.4638
     5.4638   6.0032   6.0032   6.0382   6.0383   6.0383   6.0383   6.0383
     6.0383   6.2529   6.2529   6.2529   6.2529   6.2529   6.2529   6.3200
     6.3200   6.3200   6.4551   6.4551   6.4551   6.4551   6.4551   6.4551
     6.4681   6.4681   6.4681   6.4681   6.4681   6.4681   6.4869   6.4869
     6.4869   6.4870   6.4871   6.4871   6.5706   6.5706   6.5706   6.6544
     6.6544   6.6544   6.6544   6.6544   6.6544   6.7032   6.7032   6.7032
     6.8649   6.8649   6.8649   6.8650   6.8650   6.8650   6.9509   6.9509
     7.2410   7.2410   7.2410   7.2413   7.2413   7.2413   7.4037   7.8997
     7.8997   7.8997   8.0562   8.0562   8.0562   8.0564   8.0564   8.0564

!    total energy              =   -1657.03304306 Ry
     Harris-Foulkes estimate   =   -1657.03304306 Ry
     estimated scf accuracy    <          3.1E-09 Ry

     The total energy is the sum of the following terms:

     one-electron contribution =    -562.95452722 Ry
     hartree contribution      =     504.01040235 Ry
     xc contribution           =    -286.11499279 Ry
     ewald contribution        =   -1311.96548030 Ry
     Hubbard energy            =      -0.00844509 Ry

     convergence has been achieved in   4 iterations

     Writing output data file cu2o.save
 
     init_run     :      2.49s CPU      2.80s WALL (       1 calls)
     electrons    :     46.67s CPU     48.87s WALL (       1 calls)

     Called by init_run:
     wfcinit      :      0.35s CPU      0.40s WALL (       1 calls)
     potinit      :      0.27s CPU      0.35s WALL (       1 calls)

     Called by electrons:
     c_bands      :     31.35s CPU     32.44s WALL (       4 calls)
     sum_band     :      9.00s CPU      9.39s WALL (       4 calls)
     v_of_rho     :      1.02s CPU      1.24s WALL (       5 calls)
     newd         :      6.39s CPU      6.96s WALL (       5 calls)
     mix_rho      :      0.12s CPU      0.14s WALL (       4 calls)

     Called by c_bands:
     init_us_2    :      0.22s CPU      0.23s WALL (      27 calls)
     cegterg      :     30.92s CPU     31.83s WALL (      12 calls)

     Called by *egterg:
     h_psi        :     18.64s CPU     18.73s WALL (      57 calls)
     s_psi        :      1.85s CPU      1.85s WALL (      60 calls)
     g_psi        :      0.07s CPU      0.08s WALL (      45 calls)
     cdiaghg      :      4.93s CPU      4.94s WALL (      54 calls)

     Called by h_psi:
     add_vuspsi   :      1.78s CPU      1.77s WALL (      57 calls)

     General routines
     calbec       :      3.20s CPU      3.22s WALL (     141 calls)
     fft          :      0.89s CPU      1.07s WALL (      74 calls)
     ffts         :      0.02s CPU      0.03s WALL (       9 calls)
     fftw         :     10.56s CPU     10.75s WALL (    8888 calls)
     interpolate  :      0.12s CPU      0.20s WALL (       9 calls)
     davcio       :      0.00s CPU      0.37s WALL (      78 calls)
 
     Parallel routines
     fft_scatter  :      4.22s CPU      4.31s WALL (    8971 calls)
     EXX routines
 
     PWSCF        :    49.40s CPU        51.98s WALL

 
   This run was terminated on:  21:42:17  17Jun2012            

=------------------------------------------------------------------------------=
   JOB DONE.
=------------------------------------------------------------------------------=
