
     Program PWSCF v.5.0        starts on 17Jun2012 at 21:42:18 

     This program is part of the open-source Quantum ESPRESSO suite
     for quantum simulation of materials; please cite
         "P. Giannozzi et al., J. Phys.:Condens. Matter 21 395502 (2009);
          URL http://www.quantum-espresso.org", 
     in publications or presentations arising from this work. More details at
     http://www.quantum-espresso.org/quote.php

     Parallel version (MPI), running on     4 processors
     R & G space division:  proc/pool =    4

     Current dimensions of program PWSCF are:
     Max number of different atomic species (ntypx) = 10
     Max number of k-points (npk) =  40000
     Max angular momentum in pseudopotentials (lmaxx) =  3
     Waiting for input...
     Reading input from standard input
               file O.pbe-rrkjus.UPF: wavefunction(s)  2S renormalized
               file O.pbe-rrkjus.UPF: wavefunction(s)  2S renormalized

     Subspace diagonalization in iterative solution of the eigenvalue problem:
     a serial algorithm will be used

 
     Parallelization info
     --------------------
     sticks:   dense  smooth     PW     G-vecs:    dense   smooth      PW
     Min        1137     455    131                48485    12292    1908
     Max        1138     456    132                48486    12300    1909
     Sum        4549    1821    527               193941    49181    7635
 


     bravais-lattice index     =            0
     lattice parameter (alat)  =       8.2100  a.u.
     unit-cell volume          =    2213.5506 (a.u.)^3
     number of atoms/cell      =           24
     number of atomic types    =            3
     number of electrons       =       224.00
     number of Kohn-Sham states=          112
     kinetic-energy cutoff     =      30.0000  Ry
     charge density cutoff     =     300.0000  Ry
     convergence threshold     =      1.0E-08
     mixing beta               =       0.3000
     number of iterations used =            8  plain     mixing
     Exchange-correlation      =  SLA  PW   PBE  PBE ( 1 4 3 4 0)
     EXX-fraction              =        0.00

     celldm(1)=   8.210000  celldm(2)=   0.000000  celldm(3)=   0.000000
     celldm(4)=   0.000000  celldm(5)=   0.000000  celldm(6)=   0.000000

     crystal axes: (cart. coord. in units of alat)
               a(1) = (   1.000000   1.000000   1.000000 )  
               a(2) = (  -1.000000   1.000000   1.000000 )  
               a(3) = (  -1.000000  -1.000000   1.000000 )  

     reciprocal axes: (cart. coord. in units 2 pi/alat)
               b(1) = (  0.500000  0.000000  0.500000 )  
               b(2) = ( -0.500000  0.500000  0.000000 )  
               b(3) = (  0.000000 -0.500000  0.500000 )  


     PseudoPot. # 1 for Cu read from file:
     ../pseudo/Cu.pbe-d-rrkjus.UPF
     MD5 check sum: 855c9c66b119533e70b4be5d3ca221fe
     Pseudo is Ultrasoft, Zval = 11.0
     Generated by new atomic code, or converted to UPF format
     Using radial grid of  899 points,  3 beta functions with: 
                l(1) =   2
                l(2) =   2
                l(3) =   1
     Q(r) pseudized with 0 coefficients 


     PseudoPot. # 2 for O  read from file:
     ../pseudo/O.pbe-rrkjus.UPF
     MD5 check sum: 390ba29e75625707450f3bd3f0eb6be9
     Pseudo is Ultrasoft, Zval =  6.0
     Generated by new atomic code, or converted to UPF format
     Using radial grid of 1269 points,  4 beta functions with: 
                l(1) =   0
                l(2) =   0
                l(3) =   1
                l(4) =   1
     Q(r) pseudized with 0 coefficients 


     PseudoPot. # 3 for O  read from file:
     ../pseudo/O.pbe-rrkjus.UPF
     MD5 check sum: 390ba29e75625707450f3bd3f0eb6be9
     Pseudo is Ultrasoft, Zval =  6.0
     Generated by new atomic code, or converted to UPF format
     Using radial grid of 1269 points,  4 beta functions with: 
                l(1) =   0
                l(2) =   0
                l(3) =   1
                l(4) =   1
     Q(r) pseudized with 0 coefficients 


     atomic species   valence    mass     pseudopotential
        Cu            11.00     1.00000     Cu( 1.00)
        O1             6.00     1.00000     O ( 1.00)
        O              6.00     1.00000     O ( 1.00)
 -----
     simplified LDA+U calculation, Hubbard_lmax = 2
     atomic species  L   Hubbard U  Hubbard alpha
        Cu           2    0.000000    0.000000
        O1           1    0.000000    0.000000
        O            1    0.000000    0.000000
 -----

     24 Sym. Ops. (no inversion) found



   Cartesian axes

     site n.     atom                  positions (alat units)
         1           Cu  tau(   1) = (   0.2500000   0.2500000   0.2500000  )
         2           Cu  tau(   2) = (  -0.7500000   0.7500000   0.7500000  )
         3           Cu  tau(   3) = (  -0.2500000  -0.2500000   0.2500000  )
         4           Cu  tau(   4) = (   0.2500000   0.7500000   0.7500000  )
         5           Cu  tau(   5) = (  -0.7500000  -0.2500000   0.7500000  )
         6           Cu  tau(   6) = (  -1.2500000  -0.2500000   1.2500000  )
         7           Cu  tau(   7) = (   0.2500000   1.2500000   1.2500000  )
         8           Cu  tau(   8) = (  -0.2500000   0.2500000   0.7500000  )
         9           Cu  tau(   9) = (  -0.2500000   0.2500000   1.7500000  )
        10           Cu  tau(  10) = (  -1.2500000   0.2500000   1.7500000  )
        11           Cu  tau(  11) = (  -0.2500000   1.2500000   1.7500000  )
        12           Cu  tau(  12) = (  -0.7500000   0.2500000   1.2500000  )
        13           Cu  tau(  13) = (  -0.2500000   0.7500000   1.2500000  )
        14           Cu  tau(  14) = (   0.2500000   0.2500000   1.2500000  )
        15           Cu  tau(  15) = (  -0.2500000  -0.2500000   1.2500000  )
        16           Cu  tau(  16) = (  -0.7500000   0.7500000   1.7500000  )
        17           O1  tau(  17) = (   0.0000000   0.0000000   0.0000000  )
        18           O   tau(  18) = (   0.5000000   0.5000000   0.5000000  )
        19           O   tau(  19) = (  -0.5000000   0.5000000   0.5000000  )
        20           O   tau(  20) = (  -0.5000000  -0.5000000   0.5000000  )
        21           O   tau(  21) = (   0.0000000   1.0000000   1.0000000  )
        22           O   tau(  22) = (   0.0000000   0.0000000   1.0000000  )
        23           O   tau(  23) = (  -1.0000000   0.0000000   1.0000000  )
        24           O   tau(  24) = (  -0.5000000   0.5000000   1.5000000  )

     number of k points=     3
                       cart. coord. in units 2pi/alat
        k(    1) = (   0.0000000   0.0000000   0.0000000), wk =   0.2500000
        k(    2) = (   0.0000000   0.2500000  -0.2500000), wk =   1.5000000
        k(    3) = (   0.0000000   0.0000000  -0.5000000), wk =   0.2500000

     Dense  grid:   193941 G-vectors     FFT dimensions: (  80,  80,  80)

     Smooth grid:    49181 G-vectors     FFT dimensions: (  50,  50,  50)

     Largest allocated arrays     est. size (Mb)     dimensions
        Kohn-Sham Wavefunctions         2.63 Mb     (   1538,  112)
        Atomic wavefunctions            3.00 Mb     (   1538,  128)
        NL pseudopotentials             6.38 Mb     (   1538,  272)
        Each V/rho on FFT grid          1.95 Mb     ( 128000)
        Each G-vector array             0.37 Mb     (  48486)
        G-vector shells                 0.01 Mb     (    939)
     Largest temporary arrays     est. size (Mb)     dimensions
        Auxiliary wavefunctions        10.51 Mb     (   1538,  448)
        Each subspace H/S matrix        3.06 Mb     ( 448, 448)
        Each <psi_i|beta_j> matrix      0.46 Mb     (    272,  112)
        Arrays for rho mixing          15.62 Mb     ( 128000,   8)

     The initial density is read from file :
     ./temp/cu2o.save/charge-density.dat

     Number of +U iterations with fixed ns =  0
     Starting occupations:
 --- enter write_ns ---
 LDA+U parameters:
U( 1)     =  0.00000000
alpha( 1) =  0.00000000
U( 2)     =  0.00000000
alpha( 2) =  0.00000000
U( 3)     =  0.00000000
alpha( 3) =  0.00000000
atom    1   Tr[ns(na)] =   9.77619
    eigenvalues: 
  0.903  0.996  0.996  0.997  0.997
    eigenvectors:
  0.000  0.267  0.194  0.279  0.260
  0.333  0.012  0.347  0.284  0.023
  0.333  0.319  0.040  0.018  0.289
  0.000  0.194  0.267  0.260  0.279
  0.333  0.208  0.151  0.159  0.148
    occupations:
  0.996  0.000  0.000  0.000  0.000
  0.000  0.965 -0.031  0.000  0.031
  0.000 -0.031  0.965  0.000  0.031
  0.000  0.000  0.000  0.996  0.000
  0.000  0.031  0.031  0.000  0.965
atom    2   Tr[ns(na)] =   9.77619
    eigenvalues: 
  0.903  0.996  0.996  0.997  0.997
    eigenvectors:
  0.000  0.381  0.080  0.218  0.320
  0.333  0.239  0.121  0.038  0.270
  0.333  0.003  0.356  0.299  0.008
  0.000  0.080  0.381  0.320  0.218
  0.333  0.297  0.062  0.125  0.183
    occupations:
  0.996  0.000  0.000  0.000  0.000
  0.000  0.965  0.031  0.000  0.031
  0.000  0.031  0.965  0.000 -0.031
  0.000  0.000  0.000  0.996  0.000
  0.000  0.031 -0.031  0.000  0.965
atom    3   Tr[ns(na)] =   9.77619
    eigenvalues: 
  0.903  0.996  0.996  0.997  0.997
    eigenvectors:
  0.000  0.395  0.066  0.150  0.388
  0.333  0.007  0.353  0.307  0.000
  0.333  0.224  0.135  0.068  0.239
  0.000  0.066  0.395  0.388  0.150
  0.333  0.308  0.051  0.086  0.222
    occupations:
  0.996  0.000  0.000  0.000  0.000
  0.000  0.965 -0.031  0.000 -0.031
  0.000 -0.031  0.965  0.000 -0.031
  0.000  0.000  0.000  0.996  0.000
  0.000 -0.031 -0.031  0.000  0.965
atom    4   Tr[ns(na)] =   9.77619
    eigenvalues: 
  0.903  0.996  0.996  0.997  0.997
    eigenvectors:
  0.000  0.346  0.115  0.404  0.135
  0.333  0.269  0.090  0.231  0.077
  0.333  0.000  0.359  0.000  0.307
  0.000  0.115  0.346  0.135  0.404
  0.333  0.269  0.090  0.231  0.077
    occupations:
  0.996  0.000  0.000  0.000  0.000
  0.000  0.965  0.031  0.000  0.031
  0.000  0.031  0.965  0.000 -0.031
  0.000  0.000  0.000  0.996  0.000
  0.000  0.031 -0.031  0.000  0.965
atom    5   Tr[ns(na)] =   9.77619
    eigenvalues: 
  0.903  0.996  0.996  0.997  0.997
    eigenvectors:
  0.000  0.346  0.115  0.404  0.135
  0.333  0.000  0.359  0.000  0.307
  0.333  0.269  0.090  0.231  0.077
  0.000  0.115  0.346  0.135  0.404
  0.333  0.269  0.090  0.231  0.077
    occupations:
  0.996  0.000  0.000  0.000  0.000
  0.000  0.965  0.031  0.000  0.031
  0.000  0.031  0.965  0.000 -0.031
  0.000  0.000  0.000  0.996  0.000
  0.000  0.031 -0.031  0.000  0.965
atom    6   Tr[ns(na)] =   9.77619
    eigenvalues: 
  0.903  0.996  0.996  0.997  0.997
    eigenvectors:
  0.000  0.346  0.115  0.404  0.135
  0.333  0.000  0.359  0.000  0.307
  0.333  0.269  0.090  0.231  0.077
  0.000  0.115  0.346  0.135  0.404
  0.333  0.269  0.090  0.231  0.077
    occupations:
  0.996  0.000  0.000  0.000  0.000
  0.000  0.965 -0.031  0.000 -0.031
  0.000 -0.031  0.965  0.000 -0.031
  0.000  0.000  0.000  0.996  0.000
  0.000 -0.031 -0.031  0.000  0.965
atom    7   Tr[ns(na)] =   9.77619
    eigenvalues: 
  0.903  0.996  0.996  0.997  0.997
    eigenvectors:
  0.000  0.346  0.115  0.404  0.135
  0.333  0.269  0.090  0.231  0.077
  0.333  0.000  0.359  0.000  0.307
  0.000  0.115  0.346  0.135  0.404
  0.333  0.269  0.090  0.231  0.077
    occupations:
  0.996  0.000  0.000  0.000  0.000
  0.000  0.965 -0.031  0.000  0.031
  0.000 -0.031  0.965  0.000  0.031
  0.000  0.000  0.000  0.996  0.000
  0.000  0.031  0.031  0.000  0.965
atom    8   Tr[ns(na)] =   9.77619
    eigenvalues: 
  0.903  0.996  0.996  0.997  0.997
    eigenvectors:
  0.000  0.000  0.461  0.000  0.539
  0.333  0.269  0.090  0.231  0.077
  0.333  0.269  0.090  0.231  0.077
  0.000  0.461  0.000  0.539  0.000
  0.333  0.000  0.359  0.000  0.307
    occupations:
  0.996  0.000  0.000  0.000  0.000
  0.000  0.965  0.031  0.000 -0.031
  0.000  0.031  0.965  0.000  0.031
  0.000  0.000  0.000  0.996  0.000
  0.000 -0.031  0.031  0.000  0.965
atom    9   Tr[ns(na)] =   9.77619
    eigenvalues: 
  0.903  0.996  0.996  0.997  0.997
    eigenvectors:
  0.000  0.028  0.433  0.539  0.000
  0.333  0.333  0.026  0.073  0.234
  0.333  0.184  0.175  0.080  0.227
  0.000  0.433  0.028  0.000  0.539
  0.333  0.022  0.337  0.307  0.000
    occupations:
  0.996  0.000  0.000  0.000  0.000
  0.000  0.965  0.031  0.000 -0.031
  0.000  0.031  0.965  0.000  0.031
  0.000  0.000  0.000  0.996  0.000
  0.000 -0.031  0.031  0.000  0.965
atom   10   Tr[ns(na)] =   9.77619
    eigenvalues: 
  0.903  0.996  0.996  0.997  0.997
    eigenvectors:
  0.000  0.346  0.115  0.404  0.135
  0.333  0.269  0.090  0.231  0.077
  0.333  0.000  0.359  0.000  0.307
  0.000  0.115  0.346  0.135  0.404
  0.333  0.269  0.090  0.231  0.077
    occupations:
  0.996  0.000  0.000  0.000  0.000
  0.000  0.965  0.031  0.000 -0.031
  0.000  0.031  0.965  0.000  0.031
  0.000  0.000  0.000  0.996  0.000
  0.000 -0.031  0.031  0.000  0.965
atom   11   Tr[ns(na)] =   9.77619
    eigenvalues: 
  0.903  0.996  0.996  0.997  0.997
    eigenvectors:
  0.000  0.346  0.115  0.404  0.135
  0.333  0.000  0.359  0.000  0.307
  0.333  0.269  0.090  0.231  0.077
  0.000  0.115  0.346  0.135  0.404
  0.333  0.269  0.090  0.231  0.077
    occupations:
  0.996  0.000  0.000  0.000  0.000
  0.000  0.965  0.031  0.000 -0.031
  0.000  0.031  0.965  0.000  0.031
  0.000  0.000  0.000  0.996  0.000
  0.000 -0.031  0.031  0.000  0.965
atom   12   Tr[ns(na)] =   9.77619
    eigenvalues: 
  0.903  0.996  0.996  0.997  0.997
    eigenvectors:
  0.000  0.346  0.115  0.404  0.135
  0.333  0.000  0.359  0.000  0.307
  0.333  0.269  0.090  0.231  0.077
  0.000  0.115  0.346  0.135  0.404
  0.333  0.269  0.090  0.231  0.077
    occupations:
  0.996  0.000  0.000  0.000  0.000
  0.000  0.965 -0.031  0.000  0.031
  0.000 -0.031  0.965  0.000  0.031
  0.000  0.000  0.000  0.996  0.000
  0.000  0.031  0.031  0.000  0.965
atom   13   Tr[ns(na)] =   9.77619
    eigenvalues: 
  0.903  0.996  0.996  0.997  0.997
    eigenvectors:
  0.000  0.346  0.115  0.404  0.135
  0.333  0.269  0.090  0.231  0.077
  0.333  0.000  0.359  0.000  0.307
  0.000  0.115  0.346  0.135  0.404
  0.333  0.269  0.090  0.231  0.077
    occupations:
  0.996  0.000  0.000  0.000  0.000
  0.000  0.965 -0.031  0.000 -0.031
  0.000 -0.031  0.965  0.000 -0.031
  0.000  0.000  0.000  0.996  0.000
  0.000 -0.031 -0.031  0.000  0.965
atom   14   Tr[ns(na)] =   9.77619
    eigenvalues: 
  0.903  0.996  0.996  0.997  0.997
    eigenvectors:
  0.000  0.000  0.461  0.000  0.539
  0.333  0.269  0.090  0.231  0.077
  0.333  0.269  0.090  0.231  0.077
  0.000  0.461  0.000  0.539  0.000
  0.333  0.000  0.359  0.000  0.307
    occupations:
  0.996  0.000  0.000  0.000  0.000
  0.000  0.965 -0.031  0.000  0.031
  0.000 -0.031  0.965  0.000  0.031
  0.000  0.000  0.000  0.996  0.000
  0.000  0.031  0.031  0.000  0.965
atom   15   Tr[ns(na)] =   9.77619
    eigenvalues: 
  0.903  0.996  0.996  0.997  0.997
    eigenvectors:
  0.000  0.000  0.461  0.000  0.539
  0.333  0.269  0.090  0.231  0.077
  0.333  0.269  0.090  0.231  0.077
  0.000  0.461  0.000  0.539  0.000
  0.333  0.000  0.359  0.000  0.307
    occupations:
  0.996  0.000  0.000  0.000  0.000
  0.000  0.965 -0.031  0.000 -0.031
  0.000 -0.031  0.965  0.000 -0.031
  0.000  0.000  0.000  0.996  0.000
  0.000 -0.031 -0.031  0.000  0.965
atom   16   Tr[ns(na)] =   9.77619
    eigenvalues: 
  0.903  0.996  0.996  0.997  0.997
    eigenvectors:
  0.000  0.000  0.461  0.000  0.539
  0.333  0.269  0.090  0.231  0.077
  0.333  0.269  0.090  0.231  0.077
  0.000  0.461  0.000  0.539  0.000
  0.333  0.000  0.359  0.000  0.307
    occupations:
  0.996  0.000  0.000  0.000  0.000
  0.000  0.965  0.031  0.000  0.031
  0.000  0.031  0.965  0.000 -0.031
  0.000  0.000  0.000  0.996  0.000
  0.000  0.031 -0.031  0.000  0.965
atom   17   Tr[ns(na)] =   5.74458
    eigenvalues: 
  0.957  0.957  0.957
    eigenvectors:
  0.247  0.218  0.534
  0.655  0.003  0.342
  0.098  0.779  0.123
    occupations:
  0.957  0.000  0.000
  0.000  0.957  0.000
  0.000  0.000  0.957
atom   18   Tr[ns(na)] =   5.74458
    eigenvalues: 
  0.957  0.957  0.957
    eigenvectors:
  0.408  0.259  0.333
  0.577  0.089  0.333
  0.015  0.652  0.333
    occupations:
  0.957  0.000  0.000
  0.000  0.957  0.000
  0.000  0.000  0.957
atom   19   Tr[ns(na)] =   5.74458
    eigenvalues: 
  0.957  0.957  0.957
    eigenvectors:
  0.009  0.658  0.333
  0.431  0.236  0.333
  0.561  0.106  0.333
    occupations:
  0.957  0.000  0.000
  0.000  0.957  0.000
  0.000  0.000  0.957
atom   20   Tr[ns(na)] =   5.74458
    eigenvalues: 
  0.957  0.957  0.957
    eigenvectors:
  0.255  0.411  0.333
  0.092  0.575  0.333
  0.653  0.014  0.333
    occupations:
  0.957  0.000  0.000
  0.000  0.957  0.000
  0.000  0.000  0.957
atom   21   Tr[ns(na)] =   5.74458
    eigenvalues: 
  0.957  0.957  0.957
    eigenvectors:
  0.157  0.843  0.000
  0.000  0.000  1.000
  0.843  0.157  0.000
    occupations:
  0.957  0.000  0.000
  0.000  0.957  0.000
  0.000  0.000  0.957
atom   22   Tr[ns(na)] =   5.74458
    eigenvalues: 
  0.957  0.957  0.957
    eigenvectors:
  0.000  0.000  1.000
  0.235  0.765  0.000
  0.765  0.235  0.000
    occupations:
  0.957  0.000  0.000
  0.000  0.957  0.000
  0.000  0.000  0.957
atom   23   Tr[ns(na)] =   5.74458
    eigenvalues: 
  0.957  0.957  0.957
    eigenvectors:
  0.251  0.749  0.000
  0.749  0.251  0.000
  0.000  0.000  1.000
    occupations:
  0.957  0.000  0.000
  0.000  0.957  0.000
  0.000  0.000  0.957
atom   24   Tr[ns(na)] =   5.74458
    eigenvalues: 
  0.957  0.957  0.957
    eigenvectors:
  0.165  0.501  0.333
  0.667  0.000  0.333
  0.168  0.499  0.333
    occupations:
  0.957  0.000  0.000
  0.000  0.957  0.000
  0.000  0.000  0.957
N of occupied +U levels = 202.3757139
 --- exit write_ns ---
 Atomic wfc used for LDA+U Projector are NOT orthogonalized
     Starting wfc from file

     total cpu time spent up to now is        2.9 secs

     per-process dynamical memory:    45.4 Mb

     Self-consistent Calculation

     iteration #  1     ecut=    30.00 Ry     beta=0.30
     Davidson diagonalization with overlap
     ethr =  2.33E-11,  avg # of iterations =  2.7
 --- enter write_ns ---
 LDA+U parameters:
U( 1)     =  0.00000000
alpha( 1) =  0.00000000
U( 2)     =  0.00000000
alpha( 2) =  0.00000000
U( 3)     =  0.00000000
alpha( 3) =  0.00000000
atom    1   Tr[ns(na)] =   9.77620
    eigenvalues: 
  0.903  0.996  0.996  0.997  0.997
    eigenvectors:
  0.000  0.322  0.139  0.247  0.292
  0.333  0.001  0.358  0.293  0.015
  0.333  0.286  0.073  0.027  0.280
  0.000  0.139  0.322  0.292  0.247
  0.333  0.251  0.108  0.141  0.167
    occupations:
  0.996  0.000  0.000  0.000  0.000
  0.000  0.965 -0.031  0.000  0.031
  0.000 -0.031  0.965  0.000  0.031
  0.000  0.000  0.000  0.996  0.000
  0.000  0.031  0.031  0.000  0.965
atom    2   Tr[ns(na)] =   9.77620
    eigenvalues: 
  0.903  0.996  0.996  0.997  0.997
    eigenvectors:
  0.000  0.394  0.067  0.208  0.331
  0.333  0.226  0.133  0.042  0.266
  0.333  0.006  0.353  0.301  0.007
  0.000  0.067  0.394  0.331  0.208
  0.333  0.307  0.052  0.119  0.189
    occupations:
  0.996  0.000  0.000  0.000  0.000
  0.000  0.965  0.031  0.000  0.031
  0.000  0.031  0.965  0.000 -0.031
  0.000  0.000  0.000  0.996  0.000
  0.000  0.031 -0.031  0.000  0.965
atom    3   Tr[ns(na)] =   9.77620
    eigenvalues: 
  0.903  0.996  0.996  0.997  0.997
    eigenvectors:
  0.000  0.403  0.058  0.171  0.368
  0.333  0.009  0.350  0.306  0.002
  0.333  0.216  0.143  0.058  0.249
  0.000  0.058  0.403  0.368  0.171
  0.333  0.314  0.045  0.097  0.210
    occupations:
  0.996  0.000  0.000  0.000  0.000
  0.000  0.965 -0.031  0.000 -0.031
  0.000 -0.031  0.965  0.000 -0.031
  0.000  0.000  0.000  0.996  0.000
  0.000 -0.031 -0.031  0.000  0.965
atom    4   Tr[ns(na)] =   9.77620
    eigenvalues: 
  0.903  0.996  0.996  0.997  0.997
    eigenvectors:
  0.000  0.115  0.346  0.404  0.135
  0.333  0.090  0.269  0.231  0.077
  0.333  0.359  0.000  0.000  0.308
  0.000  0.346  0.115  0.135  0.404
  0.333  0.090  0.269  0.231  0.077
    occupations:
  0.996  0.000  0.000  0.000  0.000
  0.000  0.965  0.031  0.000  0.031
  0.000  0.031  0.965  0.000 -0.031
  0.000  0.000  0.000  0.996  0.000
  0.000  0.031 -0.031  0.000  0.965
atom    5   Tr[ns(na)] =   9.77620
    eigenvalues: 
  0.903  0.996  0.996  0.997  0.997
    eigenvectors:
  0.000  0.115  0.346  0.404  0.135
  0.333  0.359  0.000  0.000  0.308
  0.333  0.090  0.269  0.231  0.077
  0.000  0.346  0.115  0.135  0.404
  0.333  0.090  0.269  0.231  0.077
    occupations:
  0.996  0.000  0.000  0.000  0.000
  0.000  0.965  0.031  0.000  0.031
  0.000  0.031  0.965  0.000 -0.031
  0.000  0.000  0.000  0.996  0.000
  0.000  0.031 -0.031  0.000  0.965
atom    6   Tr[ns(na)] =   9.77620
    eigenvalues: 
  0.903  0.996  0.996  0.997  0.997
    eigenvectors:
  0.000  0.115  0.346  0.404  0.135
  0.333  0.359  0.000  0.000  0.308
  0.333  0.090  0.269  0.231  0.077
  0.000  0.346  0.115  0.135  0.404
  0.333  0.090  0.269  0.231  0.077
    occupations:
  0.996  0.000  0.000  0.000  0.000
  0.000  0.965 -0.031  0.000 -0.031
  0.000 -0.031  0.965  0.000 -0.031
  0.000  0.000  0.000  0.996  0.000
  0.000 -0.031 -0.031  0.000  0.965
atom    7   Tr[ns(na)] =   9.77620
    eigenvalues: 
  0.903  0.996  0.996  0.997  0.997
    eigenvectors:
  0.000  0.115  0.346  0.404  0.135
  0.333  0.090  0.269  0.231  0.077
  0.333  0.359  0.000  0.000  0.308
  0.000  0.346  0.115  0.135  0.404
  0.333  0.090  0.269  0.231  0.077
    occupations:
  0.996  0.000  0.000  0.000  0.000
  0.000  0.965 -0.031  0.000  0.031
  0.000 -0.031  0.965  0.000  0.031
  0.000  0.000  0.000  0.996  0.000
  0.000  0.031  0.031  0.000  0.965
atom    8   Tr[ns(na)] =   9.77620
    eigenvalues: 
  0.903  0.996  0.996  0.997  0.997
    eigenvectors:
  0.000  0.461  0.000  0.000  0.539
  0.333  0.090  0.269  0.231  0.077
  0.333  0.090  0.269  0.231  0.077
  0.000  0.000  0.461  0.539  0.000
  0.333  0.359  0.000  0.000  0.308
    occupations:
  0.996  0.000  0.000  0.000  0.000
  0.000  0.965  0.031  0.000 -0.031
  0.000  0.031  0.965  0.000  0.031
  0.000  0.000  0.000  0.996  0.000
  0.000 -0.031  0.031  0.000  0.965
atom    9   Tr[ns(na)] =   9.77620
    eigenvalues: 
  0.903  0.996  0.996  0.997  0.997
    eigenvectors:
  0.000  0.020  0.441  0.538  0.000
  0.333  0.325  0.034  0.069  0.239
  0.333  0.198  0.161  0.085  0.222
  0.000  0.441  0.020  0.000  0.538
  0.333  0.015  0.344  0.307  0.000
    occupations:
  0.996  0.000  0.000  0.000  0.000
  0.000  0.965  0.031  0.000 -0.031
  0.000  0.031  0.965  0.000  0.031
  0.000  0.000  0.000  0.996  0.000
  0.000 -0.031  0.031  0.000  0.965
atom   10   Tr[ns(na)] =   9.77620
    eigenvalues: 
  0.903  0.996  0.996  0.997  0.997
    eigenvectors:
  0.000  0.115  0.346  0.404  0.135
  0.333  0.090  0.269  0.231  0.077
  0.333  0.359  0.000  0.000  0.308
  0.000  0.346  0.115  0.135  0.404
  0.333  0.090  0.269  0.231  0.077
    occupations:
  0.996  0.000  0.000  0.000  0.000
  0.000  0.965  0.031  0.000 -0.031
  0.000  0.031  0.965  0.000  0.031
  0.000  0.000  0.000  0.996  0.000
  0.000 -0.031  0.031  0.000  0.965
atom   11   Tr[ns(na)] =   9.77620
    eigenvalues: 
  0.903  0.996  0.996  0.997  0.997
    eigenvectors:
  0.000  0.115  0.346  0.404  0.135
  0.333  0.359  0.000  0.000  0.308
  0.333  0.090  0.269  0.231  0.077
  0.000  0.346  0.115  0.135  0.404
  0.333  0.090  0.269  0.231  0.077
    occupations:
  0.996  0.000  0.000  0.000  0.000
  0.000  0.965  0.031  0.000 -0.031
  0.000  0.031  0.965  0.000  0.031
  0.000  0.000  0.000  0.996  0.000
  0.000 -0.031  0.031  0.000  0.965
atom   12   Tr[ns(na)] =   9.77620
    eigenvalues: 
  0.903  0.996  0.996  0.997  0.997
    eigenvectors:
  0.000  0.115  0.346  0.404  0.135
  0.333  0.359  0.000  0.000  0.308
  0.333  0.090  0.269  0.231  0.077
  0.000  0.346  0.115  0.135  0.404
  0.333  0.090  0.269  0.231  0.077
    occupations:
  0.996  0.000  0.000  0.000  0.000
  0.000  0.965 -0.031  0.000  0.031
  0.000 -0.031  0.965  0.000  0.031
  0.000  0.000  0.000  0.996  0.000
  0.000  0.031  0.031  0.000  0.965
atom   13   Tr[ns(na)] =   9.77620
    eigenvalues: 
  0.903  0.996  0.996  0.997  0.997
    eigenvectors:
  0.000  0.115  0.346  0.404  0.135
  0.333  0.090  0.269  0.231  0.077
  0.333  0.359  0.000  0.000  0.308
  0.000  0.346  0.115  0.135  0.404
  0.333  0.090  0.269  0.231  0.077
    occupations:
  0.996  0.000  0.000  0.000  0.000
  0.000  0.965 -0.031  0.000 -0.031
  0.000 -0.031  0.965  0.000 -0.031
  0.000  0.000  0.000  0.996  0.000
  0.000 -0.031 -0.031  0.000  0.965
atom   14   Tr[ns(na)] =   9.77620
    eigenvalues: 
  0.903  0.996  0.996  0.997  0.997
    eigenvectors:
  0.000  0.461  0.000  0.000  0.539
  0.333  0.090  0.269  0.231  0.077
  0.333  0.090  0.269  0.231  0.077
  0.000  0.000  0.461  0.539  0.000
  0.333  0.359  0.000  0.000  0.308
    occupations:
  0.996  0.000  0.000  0.000  0.000
  0.000  0.965 -0.031  0.000  0.031
  0.000 -0.031  0.965  0.000  0.031
  0.000  0.000  0.000  0.996  0.000
  0.000  0.031  0.031  0.000  0.965
atom   15   Tr[ns(na)] =   9.77620
    eigenvalues: 
  0.903  0.996  0.996  0.997  0.997
    eigenvectors:
  0.000  0.461  0.000  0.000  0.539
  0.333  0.090  0.269  0.231  0.077
  0.333  0.090  0.269  0.231  0.077
  0.000  0.000  0.461  0.539  0.000
  0.333  0.359  0.000  0.000  0.308
    occupations:
  0.996  0.000  0.000  0.000  0.000
  0.000  0.965 -0.031  0.000 -0.031
  0.000 -0.031  0.965  0.000 -0.031
  0.000  0.000  0.000  0.996  0.000
  0.000 -0.031 -0.031  0.000  0.965
atom   16   Tr[ns(na)] =   9.77620
    eigenvalues: 
  0.903  0.996  0.996  0.997  0.997
    eigenvectors:
  0.000  0.461  0.000  0.000  0.539
  0.333  0.090  0.269  0.231  0.077
  0.333  0.090  0.269  0.231  0.077
  0.000  0.000  0.461  0.539  0.000
  0.333  0.359  0.000  0.000  0.308
    occupations:
  0.996  0.000  0.000  0.000  0.000
  0.000  0.965  0.031  0.000  0.031
  0.000  0.031  0.965  0.000 -0.031
  0.000  0.000  0.000  0.996  0.000
  0.000  0.031 -0.031  0.000  0.965
atom   17   Tr[ns(na)] =   5.74456
    eigenvalues: 
  0.957  0.957  0.957
    eigenvectors:
  0.403  0.132  0.465
  0.571  0.012  0.417
  0.026  0.856  0.118
    occupations:
  0.957  0.000  0.000
  0.000  0.957  0.000
  0.000  0.000  0.957
atom   18   Tr[ns(na)] =   5.74456
    eigenvalues: 
  0.957  0.957  0.957
    eigenvectors:
  0.333  0.436  0.230
  0.333  0.556  0.110
  0.333  0.007  0.659
    occupations:
  0.957  0.000  0.000
  0.000  0.957  0.000
  0.000  0.000  0.957
atom   19   Tr[ns(na)] =   5.74456
    eigenvalues: 
  0.957  0.957  0.957
    eigenvectors:
  0.333  0.007  0.660
  0.333  0.437  0.229
  0.333  0.556  0.111
    occupations:
  0.957  0.000  0.000
  0.000  0.957  0.000
  0.000  0.000  0.957
atom   20   Tr[ns(na)] =   5.74456
    eigenvalues: 
  0.957  0.957  0.957
    eigenvectors:
  0.333  0.223  0.444
  0.333  0.116  0.550
  0.333  0.661  0.006
    occupations:
  0.957  0.000  0.000
  0.000  0.957  0.000
  0.000  0.000  0.957
atom   21   Tr[ns(na)] =   5.74456
    eigenvalues: 
  0.957  0.957  0.957
    eigenvectors:
  0.000  0.284  0.716
  1.000  0.000  0.000
  0.000  0.716  0.284
    occupations:
  0.957  0.000  0.000
  0.000  0.957  0.000
  0.000  0.000  0.957
atom   22   Tr[ns(na)] =   5.74456
    eigenvalues: 
  0.957  0.957  0.957
    eigenvectors:
  1.000  0.000  0.000
  0.000  0.721  0.279
  0.000  0.279  0.721
    occupations:
  0.957  0.000  0.000
  0.000  0.957  0.000
  0.000  0.000  0.957
atom   23   Tr[ns(na)] =   5.74456
    eigenvalues: 
  0.957  0.957  0.957
    eigenvectors:
  0.000  0.360  0.640
  0.000  0.640  0.360
  1.000  0.000  0.000
    occupations:
  0.957  0.000  0.000
  0.000  0.957  0.000
  0.000  0.000  0.957
atom   24   Tr[ns(na)] =   5.74456
    eigenvalues: 
  0.957  0.957  0.957
    eigenvectors:
  0.333  0.211  0.455
  0.333  0.663  0.004
  0.333  0.126  0.541
    occupations:
  0.957  0.000  0.000
  0.000  0.957  0.000
  0.000  0.000  0.957
N of occupied +U levels = 202.3756535
 --- exit write_ns ---

     total cpu time spent up to now is       14.9 secs

     total energy              =   -1657.02459833 Ry
     Harris-Foulkes estimate   =   -1657.02459834 Ry
     estimated scf accuracy    <       0.00000001 Ry

     iteration #  2     ecut=    30.00 Ry     beta=0.30
     Davidson diagonalization with overlap
     ethr =  5.37E-12,  avg # of iterations =  3.0

     total cpu time spent up to now is       25.7 secs

     End of self-consistent calculation
 --- enter write_ns ---
 LDA+U parameters:
U( 1)     =  0.00000000
alpha( 1) =  0.00000000
U( 2)     =  0.00000000
alpha( 2) =  0.00000000
U( 3)     =  0.00000000
alpha( 3) =  0.00000000
atom    1   Tr[ns(na)] =   9.77619
    eigenvalues: 
  0.903  0.996  0.996  0.997  0.997
    eigenvectors:
  0.000  0.246  0.215  0.202  0.337
  0.333  0.018  0.341  0.302  0.006
  0.333  0.329  0.030  0.044  0.263
  0.000  0.215  0.246  0.337  0.202
  0.333  0.192  0.168  0.115  0.192
    occupations:
  0.996  0.000  0.000  0.000  0.000
  0.000  0.965 -0.031  0.000  0.031
  0.000 -0.031  0.965  0.000  0.031
  0.000  0.000  0.000  0.996  0.000
  0.000  0.031  0.031  0.000  0.965
atom    2   Tr[ns(na)] =   9.77619
    eigenvalues: 
  0.903  0.996  0.996  0.997  0.997
    eigenvectors:
  0.000  0.383  0.078  0.223  0.316
  0.333  0.237  0.123  0.036  0.272
  0.333  0.004  0.356  0.298  0.009
  0.000  0.078  0.383  0.316  0.223
  0.333  0.299  0.061  0.127  0.180
    occupations:
  0.996  0.000  0.000  0.000  0.000
  0.000  0.965  0.031  0.000  0.031
  0.000  0.031  0.965  0.000 -0.031
  0.000  0.000  0.000  0.996  0.000
  0.000  0.031 -0.031  0.000  0.965
atom    3   Tr[ns(na)] =   9.77619
    eigenvalues: 
  0.903  0.996  0.996  0.997  0.997
    eigenvectors:
  0.000  0.408  0.053  0.145  0.393
  0.333  0.011  0.348  0.307  0.000
  0.333  0.210  0.149  0.071  0.237
  0.000  0.053  0.408  0.393  0.145
  0.333  0.318  0.041  0.083  0.225
    occupations:
  0.996  0.000  0.000  0.000  0.000
  0.000  0.965 -0.031  0.000 -0.031
  0.000 -0.031  0.965  0.000 -0.031
  0.000  0.000  0.000  0.996  0.000
  0.000 -0.031 -0.031  0.000  0.965
atom    4   Tr[ns(na)] =   9.77619
    eigenvalues: 
  0.903  0.996  0.996  0.997  0.997
    eigenvectors:
  0.000  0.346  0.115  0.404  0.135
  0.333  0.269  0.090  0.231  0.077
  0.333  0.000  0.359  0.000  0.307
  0.000  0.115  0.346  0.135  0.404
  0.333  0.269  0.090  0.231  0.077
    occupations:
  0.996  0.000  0.000  0.000  0.000
  0.000  0.965  0.031  0.000  0.031
  0.000  0.031  0.965  0.000 -0.031
  0.000  0.000  0.000  0.996  0.000
  0.000  0.031 -0.031  0.000  0.965
atom    5   Tr[ns(na)] =   9.77619
    eigenvalues: 
  0.903  0.996  0.996  0.997  0.997
    eigenvectors:
  0.000  0.346  0.115  0.404  0.135
  0.333  0.000  0.359  0.000  0.307
  0.333  0.269  0.090  0.231  0.077
  0.000  0.115  0.346  0.135  0.404
  0.333  0.269  0.090  0.231  0.077
    occupations:
  0.996  0.000  0.000  0.000  0.000
  0.000  0.965  0.031  0.000  0.031
  0.000  0.031  0.965  0.000 -0.031
  0.000  0.000  0.000  0.996  0.000
  0.000  0.031 -0.031  0.000  0.965
atom    6   Tr[ns(na)] =   9.77619
    eigenvalues: 
  0.903  0.996  0.996  0.997  0.997
    eigenvectors:
  0.000  0.346  0.115  0.404  0.135
  0.333  0.000  0.359  0.000  0.307
  0.333  0.269  0.090  0.231  0.077
  0.000  0.115  0.346  0.135  0.404
  0.333  0.269  0.090  0.231  0.077
    occupations:
  0.996  0.000  0.000  0.000  0.000
  0.000  0.965 -0.031  0.000 -0.031
  0.000 -0.031  0.965  0.000 -0.031
  0.000  0.000  0.000  0.996  0.000
  0.000 -0.031 -0.031  0.000  0.965
atom    7   Tr[ns(na)] =   9.77619
    eigenvalues: 
  0.903  0.996  0.996  0.997  0.997
    eigenvectors:
  0.000  0.346  0.115  0.404  0.135
  0.333  0.269  0.090  0.231  0.077
  0.333  0.000  0.359  0.000  0.307
  0.000  0.115  0.346  0.135  0.404
  0.333  0.269  0.090  0.231  0.077
    occupations:
  0.996  0.000  0.000  0.000  0.000
  0.000  0.965 -0.031  0.000  0.031
  0.000 -0.031  0.965  0.000  0.031
  0.000  0.000  0.000  0.996  0.000
  0.000  0.031  0.031  0.000  0.965
atom    8   Tr[ns(na)] =   9.77619
    eigenvalues: 
  0.903  0.996  0.996  0.997  0.997
    eigenvectors:
  0.000  0.000  0.461  0.000  0.539
  0.333  0.269  0.090  0.231  0.077
  0.333  0.269  0.090  0.231  0.077
  0.000  0.461  0.000  0.539  0.000
  0.333  0.000  0.359  0.000  0.307
    occupations:
  0.996  0.000  0.000  0.000  0.000
  0.000  0.965  0.031  0.000 -0.031
  0.000  0.031  0.965  0.000  0.031
  0.000  0.000  0.000  0.996  0.000
  0.000 -0.031  0.031  0.000  0.965
atom    9   Tr[ns(na)] =   9.77619
    eigenvalues: 
  0.903  0.996  0.996  0.997  0.997
    eigenvectors:
  0.000  0.024  0.437  0.539  0.000
  0.333  0.329  0.030  0.075  0.233
  0.333  0.191  0.168  0.079  0.228
  0.000  0.437  0.024  0.000  0.539
  0.333  0.019  0.341  0.307  0.000
    occupations:
  0.996  0.000  0.000  0.000  0.000
  0.000  0.965  0.031  0.000 -0.031
  0.000  0.031  0.965  0.000  0.031
  0.000  0.000  0.000  0.996  0.000
  0.000 -0.031  0.031  0.000  0.965
atom   10   Tr[ns(na)] =   9.77619
    eigenvalues: 
  0.903  0.996  0.996  0.997  0.997
    eigenvectors:
  0.000  0.346  0.115  0.404  0.135
  0.333  0.269  0.090  0.231  0.077
  0.333  0.000  0.359  0.000  0.307
  0.000  0.115  0.346  0.135  0.404
  0.333  0.269  0.090  0.231  0.077
    occupations:
  0.996  0.000  0.000  0.000  0.000
  0.000  0.965  0.031  0.000 -0.031
  0.000  0.031  0.965  0.000  0.031
  0.000  0.000  0.000  0.996  0.000
  0.000 -0.031  0.031  0.000  0.965
atom   11   Tr[ns(na)] =   9.77619
    eigenvalues: 
  0.903  0.996  0.996  0.997  0.997
    eigenvectors:
  0.000  0.346  0.115  0.404  0.135
  0.333  0.000  0.359  0.000  0.307
  0.333  0.269  0.090  0.231  0.077
  0.000  0.115  0.346  0.135  0.404
  0.333  0.269  0.090  0.231  0.077
    occupations:
  0.996  0.000  0.000  0.000  0.000
  0.000  0.965  0.031  0.000 -0.031
  0.000  0.031  0.965  0.000  0.031
  0.000  0.000  0.000  0.996  0.000
  0.000 -0.031  0.031  0.000  0.965
atom   12   Tr[ns(na)] =   9.77619
    eigenvalues: 
  0.903  0.996  0.996  0.997  0.997
    eigenvectors:
  0.000  0.346  0.115  0.404  0.135
  0.333  0.000  0.359  0.000  0.307
  0.333  0.269  0.090  0.231  0.077
  0.000  0.115  0.346  0.135  0.404
  0.333  0.269  0.090  0.231  0.077
    occupations:
  0.996  0.000  0.000  0.000  0.000
  0.000  0.965 -0.031  0.000  0.031
  0.000 -0.031  0.965  0.000  0.031
  0.000  0.000  0.000  0.996  0.000
  0.000  0.031  0.031  0.000  0.965
atom   13   Tr[ns(na)] =   9.77619
    eigenvalues: 
  0.903  0.996  0.996  0.997  0.997
    eigenvectors:
  0.000  0.346  0.115  0.404  0.135
  0.333  0.269  0.090  0.231  0.077
  0.333  0.000  0.359  0.000  0.307
  0.000  0.115  0.346  0.135  0.404
  0.333  0.269  0.090  0.231  0.077
    occupations:
  0.996  0.000  0.000  0.000  0.000
  0.000  0.965 -0.031  0.000 -0.031
  0.000 -0.031  0.965  0.000 -0.031
  0.000  0.000  0.000  0.996  0.000
  0.000 -0.031 -0.031  0.000  0.965
atom   14   Tr[ns(na)] =   9.77619
    eigenvalues: 
  0.903  0.996  0.996  0.997  0.997
    eigenvectors:
  0.000  0.000  0.461  0.000  0.539
  0.333  0.269  0.090  0.231  0.077
  0.333  0.269  0.090  0.231  0.077
  0.000  0.461  0.000  0.539  0.000
  0.333  0.000  0.359  0.000  0.307
    occupations:
  0.996  0.000  0.000  0.000  0.000
  0.000  0.965 -0.031  0.000  0.031
  0.000 -0.031  0.965  0.000  0.031
  0.000  0.000  0.000  0.996  0.000
  0.000  0.031  0.031  0.000  0.965
atom   15   Tr[ns(na)] =   9.77619
    eigenvalues: 
  0.903  0.996  0.996  0.997  0.997
    eigenvectors:
  0.000  0.000  0.461  0.000  0.539
  0.333  0.269  0.090  0.231  0.077
  0.333  0.269  0.090  0.231  0.077
  0.000  0.461  0.000  0.539  0.000
  0.333  0.000  0.359  0.000  0.307
    occupations:
  0.996  0.000  0.000  0.000  0.000
  0.000  0.965 -0.031  0.000 -0.031
  0.000 -0.031  0.965  0.000 -0.031
  0.000  0.000  0.000  0.996  0.000
  0.000 -0.031 -0.031  0.000  0.965
atom   16   Tr[ns(na)] =   9.77619
    eigenvalues: 
  0.903  0.996  0.996  0.997  0.997
    eigenvectors:
  0.000  0.000  0.461  0.000  0.539
  0.333  0.269  0.090  0.231  0.077
  0.333  0.269  0.090  0.231  0.077
  0.000  0.461  0.000  0.539  0.000
  0.333  0.000  0.359  0.000  0.307
    occupations:
  0.996  0.000  0.000  0.000  0.000
  0.000  0.965  0.031  0.000  0.031
  0.000  0.031  0.965  0.000 -0.031
  0.000  0.000  0.000  0.996  0.000
  0.000  0.031 -0.031  0.000  0.965
atom   17   Tr[ns(na)] =   5.74457
    eigenvalues: 
  0.957  0.957  0.957
    eigenvectors:
  0.279  0.193  0.528
  0.673  0.002  0.325
  0.048  0.805  0.147
    occupations:
  0.957  0.000  0.000
  0.000  0.957  0.000
  0.000  0.000  0.957
atom   18   Tr[ns(na)] =   5.74458
    eigenvalues: 
  0.957  0.957  0.957
    eigenvectors:
  0.403  0.263  0.333
  0.580  0.086  0.333
  0.016  0.651  0.333
    occupations:
  0.957  0.000  0.000
  0.000  0.957  0.000
  0.000  0.000  0.957
atom   19   Tr[ns(na)] =   5.74458
    eigenvalues: 
  0.957  0.957  0.957
    eigenvectors:
  0.015  0.652  0.333
  0.407  0.260  0.333
  0.578  0.088  0.333
    occupations:
  0.957  0.000  0.000
  0.000  0.957  0.000
  0.000  0.000  0.957
atom   20   Tr[ns(na)] =   5.74458
    eigenvalues: 
  0.957  0.957  0.957
    eigenvectors:
  0.360  0.307  0.333
  0.032  0.634  0.333
  0.608  0.059  0.333
    occupations:
  0.957  0.000  0.000
  0.000  0.957  0.000
  0.000  0.000  0.957
atom   21   Tr[ns(na)] =   5.74458
    eigenvalues: 
  0.957  0.957  0.957
    eigenvectors:
  0.201  0.799  0.000
  0.000  0.000  1.000
  0.799  0.201  0.000
    occupations:
  0.957  0.000  0.000
  0.000  0.957  0.000
  0.000  0.000  0.957
atom   22   Tr[ns(na)] =   5.74458
    eigenvalues: 
  0.957  0.957  0.957
    eigenvectors:
  0.000  0.000  1.000
  0.400  0.600  0.000
  0.600  0.400  0.000
    occupations:
  0.957  0.000  0.000
  0.000  0.957  0.000
  0.000  0.000  0.957
atom   23   Tr[ns(na)] =   5.74458
    eigenvalues: 
  0.957  0.957  0.957
    eigenvectors:
  0.211  0.789  0.000
  0.789  0.211  0.000
  0.000  0.000  1.000
    occupations:
  0.957  0.000  0.000
  0.000  0.957  0.000
  0.000  0.000  0.957
atom   24   Tr[ns(na)] =   5.74458
    eigenvalues: 
  0.957  0.957  0.957
    eigenvectors:
  0.342  0.325  0.333
  0.618  0.049  0.333
  0.040  0.626  0.333
    occupations:
  0.957  0.000  0.000
  0.000  0.957  0.000
  0.000  0.000  0.957
N of occupied +U levels = 202.3756936
 --- exit write_ns ---

          k = 0.0000 0.0000 0.0000 (  6099 PWs)   bands (ev):

   -11.0922 -10.7485 -10.7485 -10.7485 -10.7485 -10.7485 -10.7485 -10.4509
     1.6678   1.6678   1.6678   1.6678   1.6678   1.6678   1.7601   1.7601
     1.7601   2.7412   2.7412   2.7412   2.7412   2.7412   2.7412   3.3486
     3.3486   3.3486   3.3486   3.3486   3.3486   3.9956   4.0891   4.0891
     4.0891   5.6250   5.6250   5.6739   5.6739   5.6739   5.6739   5.6739
     5.6739   5.7458   5.7458   5.7458   5.8835   5.8835   5.8835   5.8835
     5.8835   5.8835   6.2974   6.2974   6.2974   6.2974   6.2974   6.2974
     6.3053   6.3053   6.3053   6.3053   6.3053   6.3053   6.3716   6.3716
     6.3716   6.3716   6.3716   6.3716   6.5158   6.5158   6.6192   6.6192
     6.6192   6.6192   6.6192   6.6192   6.6315   6.6315   6.6315   6.6747
     6.6747   6.6747   6.6818   6.6818   6.6818   6.6818   6.6818   6.6818
     6.9907   6.9907   6.9907   6.9907   6.9907   6.9907   6.9954   6.9954
     6.9954   7.2264   7.2264   7.2264   7.2264   7.2264   7.2264   7.8161
     7.8161   7.8161   7.8161   7.8161   7.8161   8.4051   8.4051   8.4051

          k = 0.0000 0.2500-0.2500 (  6164 PWs)   bands (ev):

   -10.9246 -10.9246 -10.8515 -10.8515 -10.6446 -10.6446 -10.6028 -10.6028
     1.7236   1.7236   1.7831   1.7831   2.0203   2.0203   2.0779   2.0779
     2.0934   2.0934   2.4235   2.4235   2.6812   2.6812   3.1234   3.1234
     3.1752   3.1752   3.2629   3.2629   3.3338   3.3338   3.6514   3.6515
     4.8281   4.8282   5.4177   5.4177   5.5579   5.5579   5.7612   5.7612
     5.7842   5.7842   5.8236   5.8236   6.0313   6.0313   6.0550   6.0550
     6.1026   6.1026   6.1423   6.1423   6.2592   6.2592   6.2811   6.2811
     6.3370   6.3370   6.3658   6.3658   6.4205   6.4205   6.4220   6.4220
     6.4395   6.4395   6.4455   6.4455   6.4628   6.4628   6.5239   6.5239
     6.5402   6.5402   6.6116   6.6116   6.7154   6.7154   6.7164   6.7164
     6.7571   6.7571   6.7705   6.7705   6.7887   6.7887   6.8105   6.8105
     6.8110   6.8110   6.8242   6.8242   6.9234   6.9234   6.9559   6.9559
     6.9881   6.9881   7.2192   7.2192   7.2681   7.2681   7.3801   7.3801
     7.7343   7.7343   7.8913   7.8913   7.8979   7.8979   8.1546   8.1546

          k = 0.0000 0.0000-0.5000 (  6098 PWs)   bands (ev):

   -10.9360 -10.7673 -10.7673 -10.7673 -10.7673 -10.7673 -10.7673 -10.5191
     1.8559   1.8559   1.8559   2.3419   2.3419   2.3419   2.3419   2.3419
     2.3419   2.3992   2.3992   2.3992   2.3992   2.3992   2.3992   3.0134
     3.0134   3.0134   3.0134   3.0134   3.0134   3.2573   3.2573   3.2573
     5.3202   5.3202   5.3202   5.3202   5.3202   5.3202   5.4639   5.4639
     5.4639   6.0033   6.0033   6.0383   6.0383   6.0383   6.0383   6.0383
     6.0383   6.2530   6.2530   6.2530   6.2530   6.2530   6.2530   6.3201
     6.3201   6.3201   6.4552   6.4552   6.4552   6.4552   6.4552   6.4552
     6.4682   6.4682   6.4682   6.4682   6.4682   6.4682   6.4871   6.4871
     6.4871   6.4871   6.4871   6.4871   6.5706   6.5706   6.5706   6.6545
     6.6545   6.6545   6.6545   6.6545   6.6545   6.7033   6.7033   6.7033
     6.8650   6.8650   6.8650   6.8651   6.8651   6.8651   6.9510   6.9510
     7.2414   7.2414   7.2414   7.2414   7.2414   7.2414   7.4037   7.8999
     7.8999   7.8999   8.0565   8.0565   8.0565   8.0565   8.0565   8.0565

!    total energy              =   -1657.02459833 Ry
     Harris-Foulkes estimate   =   -1657.02459833 Ry
     estimated scf accuracy    <          4.9E-10 Ry

     The total energy is the sum of the following terms:

     one-electron contribution =    -562.95279779 Ry
     hartree contribution      =     504.00823079 Ry
     xc contribution           =    -286.11455103 Ry
     ewald contribution        =   -1311.96548030 Ry
     Hubbard energy            =       0.00000000 Ry

     convergence has been achieved in   2 iterations

     Writing output data file cu2o.save
 
     init_run     :      2.47s CPU      2.75s WALL (       1 calls)
     electrons    :     21.74s CPU     22.85s WALL (       1 calls)

     Called by init_run:
     wfcinit      :      0.36s CPU      0.40s WALL (       1 calls)
     potinit      :      0.28s CPU      0.34s WALL (       1 calls)

     Called by electrons:
     c_bands      :     14.27s CPU     14.82s WALL (       2 calls)
     sum_band     :      4.36s CPU      4.50s WALL (       2 calls)
     v_of_rho     :      0.66s CPU      0.79s WALL (       3 calls)
     newd         :      3.73s CPU      4.11s WALL (       3 calls)
     mix_rho      :      0.04s CPU      0.05s WALL (       2 calls)

     Called by c_bands:
     init_us_2    :      0.11s CPU      0.12s WALL (      15 calls)
     cegterg      :     14.07s CPU     14.51s WALL (       6 calls)

     Called by *egterg:
     h_psi        :      8.77s CPU      8.80s WALL (      23 calls)
     s_psi        :      1.01s CPU      1.02s WALL (      26 calls)
     g_psi        :      0.04s CPU      0.04s WALL (      17 calls)
     cdiaghg      :      1.63s CPU      1.63s WALL (      20 calls)

     Called by h_psi:
     add_vuspsi   :      0.86s CPU      0.86s WALL (      23 calls)

     General routines
     calbec       :      1.70s CPU      1.69s WALL (      61 calls)
     fft          :      0.54s CPU      0.62s WALL (      42 calls)
     ffts         :      0.01s CPU      0.01s WALL (       5 calls)
     fftw         :      5.13s CPU      5.09s WALL (    4404 calls)
     interpolate  :      0.09s CPU      0.11s WALL (       5 calls)
     davcio       :      0.00s CPU      0.21s WALL (      42 calls)
 
     Parallel routines
     fft_scatter  :      1.82s CPU      1.98s WALL (    4451 calls)
     EXX routines
 
     PWSCF        :    24.45s CPU        25.92s WALL

 
   This run was terminated on:  21:42:44  17Jun2012            

=------------------------------------------------------------------------------=
   JOB DONE.
=------------------------------------------------------------------------------=
