[Molden Format]
[FREQ]
    0.00
    0.00
    0.00
  499.94
  499.94
  499.94
[FR-COORD]
   Si          0.00000        0.00000        0.00000
   Si         -2.58657        2.58657        2.58657
[FR-NORM-COORD]
 vibration     1
   0.00000  -0.70711   0.00000
   0.00000  -0.70711   0.00000
 vibration     2
  -0.70711   0.00000   0.00000
  -0.70711   0.00000   0.00000
 vibration     3
   0.00000   0.00000  -0.70711
   0.00000   0.00000  -0.70711
 vibration     4
   0.00000   0.70711   0.00000
   0.00000  -0.70711   0.00000
 vibration     5
   0.00000   0.00000  -0.70711
   0.00000   0.00000   0.70711
 vibration     6
  -0.70711   0.00000   0.00000
   0.70711   0.00000   0.00000
