
     Program PHONON v.4.3.2     starts on 23Jun2014 at  2: 6:16 

     This program is part of the open-source Quantum ESPRESSO suite
     for quantum simulation of materials; please cite
         "P. Giannozzi et al., J. Phys.:Condens. Matter 21 395502 (2009);
          URL http://www.quantum-espresso.org", 
     in publications or presentations arising from this work. More details at
     http://www.quantum-espresso.org/wiki/index.php/Citing_Quantum-ESPRESSO

     Ultrasoft (Vanderbilt) Pseudopotentials
      Title line not specified: using 'default'.

   Info: using nr1, nr2, nr3 values from input

   Info: using nr1s, nr2s, nr3s values from input
 
     G-vector sticks info
     --------------------
     sticks:   dense  smooth     PW     G-vecs:    dense   smooth      PW
     Sum         301     301    109                 3383     3383     725
 

     Calculation of q =    0.0000000   0.0000000   0.0000000

                                                                                

     bravais-lattice index     =            2
     lattice parameter (alat)  =      10.3463  a.u.
     unit-cell volume          =     276.8823 (a.u.)^3
     number of atoms/cell      =            2
     number of atomic types    =            1
     kinetic-energy cut-off    =      20.0000  Ry
     charge density cut-off    =      80.0000  Ry
     convergence threshold     =      1.0E-14
     beta                      =       0.7000
     number of iterations used =            4
     Exchange-correlation      =  SLA  PW   PBE  PBE ( 1 4 3 4 0)
     EXX-fraction              =        0.00


     celldm(1)=   10.34630  celldm(2)=    0.00000  celldm(3)=    0.00000
     celldm(4)=    0.00000  celldm(5)=    0.00000  celldm(6)=    0.00000

     crystal axes: (cart. coord. in units of alat)
               a(1) = ( -0.5000  0.0000  0.5000 )  
               a(2) = (  0.0000  0.5000  0.5000 )  
               a(3) = ( -0.5000  0.5000  0.0000 )  

     reciprocal axes: (cart. coord. in units 2 pi/alat)
               b(1) = ( -1.0000 -1.0000  1.0000 )  
               b(2) = (  1.0000  1.0000  1.0000 )  
               b(3) = ( -1.0000  1.0000 -1.0000 )  


     Atoms inside the unit cell: 

   Cartesian axes

     site n.  atom      mass           positions (alat units)
        1        Si  28.0860   tau( 1) = (    0.00000    0.00000    0.00000  )
        2        Si  28.0860   tau( 2) = (   -0.25000    0.25000    0.25000  )

     Computing dynamical matrix for 
                    q = (   0.0000000   0.0000000   0.0000000 )
 
     49 Sym.Ops. (with q -> -q+G )


     G cutoff =  216.9204  (   3383 G-vectors)     FFT grid: ( 24, 24, 24)
     number of k points=    28
                       cart. coord. in units 2pi/alat
        k(    1) = (  -0.0833333   0.0833333   0.0833333), wk =   0.0185185
        k(    2) = (  -0.2500000   0.2500000  -0.0833333), wk =   0.0555556
        k(    3) = (  -0.4166667   0.4166667  -0.2500000), wk =   0.0555556
        k(    4) = (   0.4166667  -0.4166667   0.5833333), wk =   0.0555556
        k(    5) = (   0.2500000  -0.2500000   0.4166667), wk =   0.0555556
        k(    6) = (   0.0833333  -0.0833333   0.2500000), wk =   0.0555556
        k(    7) = (  -0.0833333   0.4166667   0.0833333), wk =   0.0555556
        k(    8) = (  -0.2500000   0.5833333  -0.0833333), wk =   0.1111111
        k(    9) = (   0.5833333  -0.2500000   0.7500000), wk =   0.1111111
        k(   10) = (   0.4166667  -0.0833333   0.5833333), wk =   0.1111111
        k(   11) = (   0.2500000   0.0833333   0.4166667), wk =   0.1111111
        k(   12) = (  -0.0833333   0.7500000   0.0833333), wk =   0.0555556
        k(   13) = (   0.7500000  -0.0833333   0.9166667), wk =   0.1111111
        k(   14) = (   0.5833333   0.0833333   0.7500000), wk =   0.1111111
        k(   15) = (   0.4166667   0.2500000   0.5833333), wk =   0.1111111
        k(   16) = (  -0.0833333  -0.9166667   0.0833333), wk =   0.0555556
        k(   17) = (  -0.2500000  -0.7500000  -0.0833333), wk =   0.1111111
        k(   18) = (  -0.0833333  -0.5833333   0.0833333), wk =   0.0555556
        k(   19) = (  -0.2500000   0.2500000   0.2500000), wk =   0.0185185
        k(   20) = (  -0.4166667   0.4166667   0.0833333), wk =   0.0555556
        k(   21) = (   0.4166667  -0.4166667   0.9166667), wk =   0.0555556
        k(   22) = (   0.2500000  -0.2500000   0.7500000), wk =   0.0555556
        k(   23) = (  -0.2500000   0.5833333   0.2500000), wk =   0.0555556
        k(   24) = (   0.5833333  -0.2500000   1.0833333), wk =   0.1111111
        k(   25) = (   0.4166667  -0.0833333   0.9166667), wk =   0.1111111
        k(   26) = (  -0.2500000  -1.0833333   0.2500000), wk =   0.0555556
        k(   27) = (  -0.4166667   0.4166667   0.4166667), wk =   0.0185185
        k(   28) = (   0.4166667  -0.4166667   1.2500000), wk =   0.0555556

     PseudoPot. # 1 for Si read from file:
     ./tmp/si.save/Si.pbe-rrkj.UPF
     MD5 check sum: cf7ab5690cd9a85b22c4813f7e365554
     Pseudo is Norm-conserving, Zval =  4.0
     Generated by new atomic code, or converted to UPF format
     Using radial grid of  883 points,  3 beta functions with: 
                l(1) =   0
                l(2) =   0
                l(3) =   1


     Electric field:
     Dielectric constant
     Born effective charges as d Force / d E


     Atomic displacements:
     There are   2 irreducible representations

     Representation     1      3 modes -T_2g G_25' G_5+ To be done

     Representation     2      3 modes -T_1u G_15  G_4- To be done



     Alpha used in Ewald sum =   0.8000
     PHONON       :     0.80s CPU         0.82s WALL


     Electric Fields Calculation

      iter #   1 total cpu time :     7.6 secs   av.it.:   6.2
      thresh= 0.100E-01 alpha_mix =  0.700 |ddv_scf|^2 =  0.486E-06

      iter #   2 total cpu time :    10.7 secs   av.it.:  10.5
      thresh= 0.697E-04 alpha_mix =  0.700 |ddv_scf|^2 =  0.274E-07

      iter #   3 total cpu time :    13.9 secs   av.it.:  10.3
      thresh= 0.166E-04 alpha_mix =  0.700 |ddv_scf|^2 =  0.159E-08

      iter #   4 total cpu time :    16.8 secs   av.it.:   9.7
      thresh= 0.399E-05 alpha_mix =  0.700 |ddv_scf|^2 =  0.570E-11

      iter #   5 total cpu time :    20.0 secs   av.it.:  10.5
      thresh= 0.239E-06 alpha_mix =  0.700 |ddv_scf|^2 =  0.109E-13

      iter #   6 total cpu time :    22.9 secs   av.it.:   9.3
      thresh= 0.104E-07 alpha_mix =  0.700 |ddv_scf|^2 =  0.714E-15

     End of electric fields calculation

          Dielectric constant in cartesian axis 

          (      12.911842549       0.000000000       0.000000000 )
          (       0.000000000      12.911842549       0.000000000 )
          (       0.000000000       0.000000000      12.911842549 )

          Effective charges (d Force / dE) in cartesian axis

           atom      1   Si 
      Ex  (       -0.00496        0.00000        0.00000 )
      Ey  (        0.00000       -0.00496        0.00000 )
      Ez  (        0.00000        0.00000       -0.00496 )
           atom      2   Si 
      Ex  (       -0.00496        0.00000        0.00000 )
      Ey  (        0.00000       -0.00496        0.00000 )
      Ez  (        0.00000        0.00000       -0.00496 )


     Representation #  1 modes #   1  2  3

     Self-consistent Calculation

      iter #   1 total cpu time :    26.3 secs   av.it.:   5.5
      thresh= 0.100E-01 alpha_mix =  0.700 |ddv_scf|^2 =  0.109E-06

      iter #   2 total cpu time :    29.4 secs   av.it.:  10.5
      thresh= 0.329E-04 alpha_mix =  0.700 |ddv_scf|^2 =  0.228E-08

      iter #   3 total cpu time :    32.6 secs   av.it.:  10.3
      thresh= 0.477E-05 alpha_mix =  0.700 |ddv_scf|^2 =  0.112E-09

      iter #   4 total cpu time :    35.5 secs   av.it.:   9.2
      thresh= 0.106E-05 alpha_mix =  0.700 |ddv_scf|^2 =  0.365E-13

      iter #   5 total cpu time :    38.6 secs   av.it.:  10.3
      thresh= 0.191E-07 alpha_mix =  0.700 |ddv_scf|^2 =  0.131E-14

     End of self-consistent calculation

     Convergence has been achieved 


     Representation #  2 modes #   4  5  6

     Self-consistent Calculation

      iter #   1 total cpu time :    40.9 secs   av.it.:   5.5
      thresh= 0.100E-01 alpha_mix =  0.700 |ddv_scf|^2 =  0.748E-07

      iter #   2 total cpu time :    44.1 secs   av.it.:  10.5
      thresh= 0.273E-04 alpha_mix =  0.700 |ddv_scf|^2 =  0.311E-08

      iter #   3 total cpu time :    47.2 secs   av.it.:  10.3
      thresh= 0.557E-05 alpha_mix =  0.700 |ddv_scf|^2 =  0.123E-09

      iter #   4 total cpu time :    50.1 secs   av.it.:   9.5
      thresh= 0.111E-05 alpha_mix =  0.700 |ddv_scf|^2 =  0.700E-13

      iter #   5 total cpu time :    53.3 secs   av.it.:  10.4
      thresh= 0.265E-07 alpha_mix =  0.700 |ddv_scf|^2 =  0.111E-14

     End of self-consistent calculation

     Convergence has been achieved 
 
     Number of q in the star =    1
     List of q in the star:
          1   0.000000000   0.000000000   0.000000000

          Dielectric constant in cartesian axis 

          (      12.911842549       0.000000000       0.000000000 )
          (       0.000000000      12.911842549       0.000000000 )
          (       0.000000000       0.000000000      12.911842549 )

          Effective charges (d Force / dE) in cartesian axis

           atom      1   Si 
      Ex  (       -0.00496        0.00000        0.00000 )
      Ey  (        0.00000       -0.00496        0.00000 )
      Ez  (        0.00000        0.00000       -0.00496 )
           atom      2   Si 
      Ex  (       -0.00496        0.00000        0.00000 )
      Ey  (        0.00000       -0.00496        0.00000 )
      Ez  (        0.00000        0.00000       -0.00496 )

     Diagonalizing the dynamical matrix

     q = (    0.000000000   0.000000000   0.000000000 ) 

 **************************************************************************
     omega( 1) =       0.437450 [THz] =      14.591747 [cm-1]
     omega( 2) =       0.437450 [THz] =      14.591747 [cm-1]
     omega( 3) =       0.437450 [THz] =      14.591747 [cm-1]
     omega( 4) =      14.994107 [THz] =     500.149581 [cm-1]
     omega( 5) =      14.994107 [THz] =     500.149581 [cm-1]
     omega( 6) =      14.994107 [THz] =     500.149581 [cm-1]
 **************************************************************************

     Mode symmetry, O_h (m-3m)  point group:

     omega(  1 -  3) =         14.6  [cm-1]   --> T_1u G_15  G_4- I  
     omega(  4 -  6) =        500.1  [cm-1]   --> T_2g G_25' G_5+ R  

 **************************************************************************
 
     PHONON       :    52.26s CPU        53.34s WALL

     INITIALIZATION: 
     phq_setup    :      0.04s CPU      0.04s WALL (       1 calls)
     phq_init     :      0.08s CPU      0.08s WALL (       1 calls)
 
     phq_init     :      0.08s CPU      0.08s WALL (       1 calls)
     init_vloc    :      0.00s CPU      0.00s WALL (       1 calls)
     init_us_1    :      0.04s CPU      0.04s WALL (       1 calls)
 
     DIELECTRIC CONSTANT AND EFFECTIVE CHARGES:
     solve_e      :     21.69s CPU     22.07s WALL (       1 calls)
     dielec       :      0.01s CPU      0.01s WALL (       1 calls)
     zstar_eu     :      1.01s CPU      1.03s WALL (       1 calls)
 
     DYNAMICAL MATRIX:
     dynmat0      :      0.02s CPU      0.03s WALL (       1 calls)
     phqscf       :     28.75s CPU     29.39s WALL (       1 calls)
     dynmatrix    :      0.00s CPU      0.01s WALL (       1 calls)
 
     phqscf       :     28.75s CPU     29.39s WALL (       1 calls)
     solve_linter :     28.67s CPU     29.31s WALL (       2 calls)
     drhodv       :      0.07s CPU      0.07s WALL (       2 calls)
 
     dynmat0      :      0.02s CPU      0.03s WALL (       1 calls)
     dynmat_us    :      0.02s CPU      0.02s WALL (       1 calls)
     d2ionq       :      0.00s CPU      0.00s WALL (       1 calls)
 
     dynmat_us    :      0.02s CPU      0.02s WALL (       1 calls)
 
     phqscf       :     28.75s CPU     29.39s WALL (       1 calls)
     solve_linter :     28.67s CPU     29.31s WALL (       2 calls)
 
     solve_linter :     28.67s CPU     29.31s WALL (       2 calls)
     dvqpsi_us    :      2.12s CPU      2.17s WALL (     336 calls)
     ortho        :      0.11s CPU      0.10s WALL (    1428 calls)
     cgsolve      :     40.65s CPU     41.25s WALL (    1428 calls)
     incdrhoscf   :      3.60s CPU      3.70s WALL (    1344 calls)
     vpsifft      :      1.78s CPU      1.80s WALL (     672 calls)
     dv_of_drho   :      0.38s CPU      0.41s WALL (      48 calls)
     mix_pot      :      0.07s CPU      0.14s WALL (      16 calls)
     symdvscf     :      0.63s CPU      0.62s WALL (      10 calls)
 
     dvqpsi_us    :      2.12s CPU      2.17s WALL (     336 calls)
     dvqpsi_us_on :      0.08s CPU      0.10s WALL (     336 calls)
 
     cgsolve      :     40.65s CPU     41.25s WALL (    1428 calls)
     ch_psi       :     39.99s CPU     40.61s WALL (   16405 calls)
 
     ch_psi       :     39.99s CPU     40.61s WALL (   16405 calls)
     h_psiq       :     38.22s CPU     38.85s WALL (   16405 calls)
     last         :      1.58s CPU      1.57s WALL (   16405 calls)
 
     h_psiq       :     38.22s CPU     38.85s WALL (   16405 calls)
     firstfft     :     17.31s CPU     17.54s WALL (   58561 calls)
     secondfft    :     16.98s CPU     17.32s WALL (   58561 calls)
     add_vuspsi   :      0.81s CPU      0.82s WALL (   16405 calls)
 
     incdrhoscf   :      3.60s CPU      3.70s WALL (    1344 calls)
 
 
      General routines
     calbec       :      1.13s CPU      1.23s WALL (   33846 calls)
     fft          :      0.26s CPU      0.26s WALL (     542 calls)
     ffts         :      0.23s CPU      0.17s WALL (     348 calls)
     fftw         :     39.57s CPU     40.00s WALL (  141986 calls)
     davcio       :      0.27s CPU      0.44s WALL (    5410 calls)
     write_rec    :      0.08s CPU      0.11s WALL (      18 calls)
 
