
     Program PWSCF v.4.3.2      starts on 23Jun2014 at  2: 6:11 

     This program is part of the open-source Quantum ESPRESSO suite
     for quantum simulation of materials; please cite
         "P. Giannozzi et al., J. Phys.:Condens. Matter 21 395502 (2009);
          URL http://www.quantum-espresso.org", 
     in publications or presentations arising from this work. More details at
     http://www.quantum-espresso.org/wiki/index.php/Citing_Quantum-ESPRESSO

     Current dimensions of program PWSCF are:
     Max number of different atomic species (ntypx) = 10
     Max number of k-points (npk) =  40000
     Max angular momentum in pseudopotentials (lmaxx) =  3
     Waiting for input...
     Reading input from stdin
Warning: card   &IONS ignored
Warning: card   / ignored
Warning: card   &CELL ignored
Warning: card   / ignored
 
     G-vector sticks info
     --------------------
     sticks:   dense  smooth     PW     G-vecs:    dense   smooth      PW
     Sum         301     301    109                 3383     3383     725
 


     bravais-lattice index     =            2
     lattice parameter (alat)  =      10.3463  a.u.
     unit-cell volume          =     276.8823 (a.u.)^3
     number of atoms/cell      =            2
     number of atomic types    =            1
     number of electrons       =         8.00
     number of Kohn-Sham states=            8
     kinetic-energy cutoff     =      20.0000  Ry
     charge density cutoff     =      80.0000  Ry
     convergence threshold     =      1.0E-10
     mixing beta               =       0.5000
     number of iterations used =            8  plain     mixing
     Exchange-correlation      =  SLA  PW   PBE  PBE ( 1 4 3 4 0)
     EXX-fraction              =        0.00

     celldm(1)=  10.346300  celldm(2)=   0.000000  celldm(3)=   0.000000
     celldm(4)=   0.000000  celldm(5)=   0.000000  celldm(6)=   0.000000

     crystal axes: (cart. coord. in units of alat)
               a(1) = (  -0.500000   0.000000   0.500000 )  
               a(2) = (   0.000000   0.500000   0.500000 )  
               a(3) = (  -0.500000   0.500000   0.000000 )  

     reciprocal axes: (cart. coord. in units 2 pi/alat)
               b(1) = ( -1.000000 -1.000000  1.000000 )  
               b(2) = (  1.000000  1.000000  1.000000 )  
               b(3) = ( -1.000000  1.000000 -1.000000 )  


     PseudoPot. # 1 for Si read from file:
     ../../pseudo/Si.pbe-rrkj.UPF
     MD5 check sum: cf7ab5690cd9a85b22c4813f7e365554
     Pseudo is Norm-conserving, Zval =  4.0
     Generated by new atomic code, or converted to UPF format
     Using radial grid of  883 points,  3 beta functions with: 
                l(1) =   0
                l(2) =   0
                l(3) =   1

     atomic species   valence    mass     pseudopotential
        Si             4.00    28.08600     Si( 1.00)

     48 Sym.Ops. (with inversion)


   Cartesian axes

     site n.     atom                  positions (alat units)
         1           Si  tau(   1) = (   0.0000000   0.0000000   0.0000000  )
         2           Si  tau(   2) = (  -0.2500000   0.2500000   0.2500000  )

     number of k points=    28
                       cart. coord. in units 2pi/alat
        k(    1) = (  -0.0833333   0.0833333   0.0833333), wk =   0.0185185
        k(    2) = (  -0.2500000   0.2500000  -0.0833333), wk =   0.0555556
        k(    3) = (  -0.4166667   0.4166667  -0.2500000), wk =   0.0555556
        k(    4) = (   0.4166667  -0.4166667   0.5833333), wk =   0.0555556
        k(    5) = (   0.2500000  -0.2500000   0.4166667), wk =   0.0555556
        k(    6) = (   0.0833333  -0.0833333   0.2500000), wk =   0.0555556
        k(    7) = (  -0.0833333   0.4166667   0.0833333), wk =   0.0555556
        k(    8) = (  -0.2500000   0.5833333  -0.0833333), wk =   0.1111111
        k(    9) = (   0.5833333  -0.2500000   0.7500000), wk =   0.1111111
        k(   10) = (   0.4166667  -0.0833333   0.5833333), wk =   0.1111111
        k(   11) = (   0.2500000   0.0833333   0.4166667), wk =   0.1111111
        k(   12) = (  -0.0833333   0.7500000   0.0833333), wk =   0.0555556
        k(   13) = (   0.7500000  -0.0833333   0.9166667), wk =   0.1111111
        k(   14) = (   0.5833333   0.0833333   0.7500000), wk =   0.1111111
        k(   15) = (   0.4166667   0.2500000   0.5833333), wk =   0.1111111
        k(   16) = (  -0.0833333  -0.9166667   0.0833333), wk =   0.0555556
        k(   17) = (  -0.2500000  -0.7500000  -0.0833333), wk =   0.1111111
        k(   18) = (  -0.0833333  -0.5833333   0.0833333), wk =   0.0555556
        k(   19) = (  -0.2500000   0.2500000   0.2500000), wk =   0.0185185
        k(   20) = (  -0.4166667   0.4166667   0.0833333), wk =   0.0555556
        k(   21) = (   0.4166667  -0.4166667   0.9166667), wk =   0.0555556
        k(   22) = (   0.2500000  -0.2500000   0.7500000), wk =   0.0555556
        k(   23) = (  -0.2500000   0.5833333   0.2500000), wk =   0.0555556
        k(   24) = (   0.5833333  -0.2500000   1.0833333), wk =   0.1111111
        k(   25) = (   0.4166667  -0.0833333   0.9166667), wk =   0.1111111
        k(   26) = (  -0.2500000  -1.0833333   0.2500000), wk =   0.0555556
        k(   27) = (  -0.4166667   0.4166667   0.4166667), wk =   0.0185185
        k(   28) = (   0.4166667  -0.4166667   1.2500000), wk =   0.0555556

     Dense  grid:     3383 G-vectors     FFT dimensions: (  24,  24,  24)

     Largest allocated arrays     est. size (Mb)     dimensions
        Kohn-Sham Wavefunctions         0.05 Mb     (    426,    8)
        NL pseudopotentials             0.07 Mb     (    426,   10)
        Each V/rho on FFT grid          0.21 Mb     (  13824)
        Each G-vector array             0.03 Mb     (   3383)
        G-vector shells                 0.00 Mb     (     75)
     Largest temporary arrays     est. size (Mb)     dimensions
        Auxiliary wavefunctions         0.21 Mb     (    426,   32)
        Each subspace H/S matrix        0.02 Mb     (  32,  32)
        Each <psi_i|beta_j> matrix      0.00 Mb     (     10,    8)
        Arrays for rho mixing           1.69 Mb     (  13824,   8)

     Initial potential from superposition of free atoms

     starting charge    7.99889, renormalised to    8.00000
     Starting wfc are    8 atomic wfcs

     total cpu time spent up to now is        0.3 secs

     per-process dynamical memory:     2.8 Mb

     Self-consistent Calculation

     iteration #  1     ecut=    20.00 Ry     beta=0.50
     Davidson diagonalization with overlap
     ethr =  1.00E-02,  avg # of iterations =  3.8

     Threshold (ethr) on eigenvalues was too large:
     Diagonalizing with lowered threshold

     Davidson diagonalization with overlap
     ethr =  7.12E-04,  avg # of iterations =  1.1

     total cpu time spent up to now is        1.5 secs

     total energy              =     -15.74096858 Ry
     Harris-Foulkes estimate   =     -15.75176081 Ry
     estimated scf accuracy    <       0.05660726 Ry

     iteration #  2     ecut=    20.00 Ry     beta=0.50
     Davidson diagonalization with overlap
     ethr =  7.08E-04,  avg # of iterations =  1.0

     total cpu time spent up to now is        1.9 secs

     total energy              =     -15.74076844 Ry
     Harris-Foulkes estimate   =     -15.74216185 Ry
     estimated scf accuracy    <       0.00989856 Ry

     iteration #  3     ecut=    20.00 Ry     beta=0.50
     Davidson diagonalization with overlap
     ethr =  1.24E-04,  avg # of iterations =  1.7

     total cpu time spent up to now is        2.4 secs

     total energy              =     -15.74124872 Ry
     Harris-Foulkes estimate   =     -15.74124748 Ry
     estimated scf accuracy    <       0.00015853 Ry

     iteration #  4     ecut=    20.00 Ry     beta=0.50
     Davidson diagonalization with overlap
     ethr =  1.98E-06,  avg # of iterations =  3.8

     total cpu time spent up to now is        3.0 secs

     total energy              =     -15.74126526 Ry
     Harris-Foulkes estimate   =     -15.74126490 Ry
     estimated scf accuracy    <       0.00000056 Ry

     iteration #  5     ecut=    20.00 Ry     beta=0.50
     Davidson diagonalization with overlap
     ethr =  6.97E-09,  avg # of iterations =  2.7

     total cpu time spent up to now is        3.6 secs

     total energy              =     -15.74126578 Ry
     Harris-Foulkes estimate   =     -15.74126571 Ry
     estimated scf accuracy    <       0.00000009 Ry

     iteration #  6     ecut=    20.00 Ry     beta=0.50
     Davidson diagonalization with overlap
     ethr =  1.07E-09,  avg # of iterations =  2.0

     total cpu time spent up to now is        4.0 secs

     total energy              =     -15.74126580 Ry
     Harris-Foulkes estimate   =     -15.74126580 Ry
     estimated scf accuracy    <          2.2E-09 Ry

     iteration #  7     ecut=    20.00 Ry     beta=0.50
     Davidson diagonalization with overlap
     ethr =  2.75E-11,  avg # of iterations =  2.5

     total cpu time spent up to now is        4.6 secs

     total energy              =     -15.74126580 Ry
     Harris-Foulkes estimate   =     -15.74126580 Ry
     estimated scf accuracy    <          2.4E-10 Ry

     iteration #  8     ecut=    20.00 Ry     beta=0.50
     Davidson diagonalization with overlap
     ethr =  2.99E-12,  avg # of iterations =  2.0

     total cpu time spent up to now is        5.1 secs

     End of self-consistent calculation

          k =-0.0833 0.0833 0.0833 (   417 PWs)   bands (ev):

    -5.6717   5.1311   5.8371   5.8371   8.5571   8.7440   8.7440   9.8449

          k =-0.2500 0.2500-0.0833 (   412 PWs)   bands (ev):

    -5.2038   3.0838   4.6311   5.6292   8.6488   9.1358   9.4818  11.6016

          k =-0.4167 0.4167-0.2500 (   415 PWs)   bands (ev):

    -4.1325   0.3727   4.1721   5.0043   8.1472   9.5323   9.5729  13.3801

          k = 0.4167-0.4167 0.5833 (   415 PWs)   bands (ev):

    -3.4495  -0.7481   4.2349   4.6322   7.9934   9.2583   9.6787  13.8495

          k = 0.2500-0.2500 0.4167 (   417 PWs)   bands (ev):

    -4.5361   1.2034   4.6933   4.7248   8.2425   9.2655  10.0485  11.9182

          k = 0.0833-0.0833 0.2500 (   411 PWs)   bands (ev):

    -5.4355   4.0774   5.2070   5.3868   8.2938   9.1511   9.6262  10.7567

          k =-0.0833 0.4167 0.0833 (   421 PWs)   bands (ev):

    -4.9670   2.8924   4.4761   4.4915   7.7267   9.8415  10.6255  10.8293

          k =-0.2500 0.5833-0.0833 (   415 PWs)   bands (ev):

    -4.0737   1.0842   3.1875   4.1122   8.1209   9.7291  10.4913  11.9283

          k = 0.5833-0.2500 0.7500 (   419 PWs)   bands (ev):

    -2.9809  -0.6292   2.5952   3.8901   8.3683   9.8947  11.8125  12.1988

          k = 0.4167-0.0833 0.5833 (   417 PWs)   bands (ev):

    -3.6872   0.4056   2.5579   4.3655   8.9500   9.5743  11.2265  11.6941

          k = 0.2500 0.0833 0.4167 (   416 PWs)   bands (ev):

    -4.7458   2.0739   3.8702   5.0180   8.5931   9.4401  10.4990  10.8692

          k =-0.0833 0.7500 0.0833 (   426 PWs)   bands (ev):

    -3.3750   0.2670   3.1516   3.4808   6.9227   7.8899  13.4484  13.5130

          k = 0.7500-0.0833 0.9167 (   422 PWs)   bands (ev):

    -2.2026  -1.0488   2.3306   3.0861   7.5375   8.6392  13.0100  14.4531

          k = 0.5833 0.0833 0.7500 (   415 PWs)   bands (ev):

    -2.5687  -0.7153   1.8572   3.6202   8.1440  11.0045  11.9778  12.6304

          k = 0.4167 0.2500 0.5833 (   419 PWs)   bands (ev):

    -3.5782  -0.2595   3.4752   4.4598   8.5558   9.1946  10.4889  12.6840

          k =-0.0833-0.9167 0.0833 (   423 PWs)   bands (ev):

    -2.2915  -1.0561   2.8872   3.2692   6.8169   7.3730  14.9204  15.0002

          k =-0.2500-0.7500-0.0833 (   420 PWs)   bands (ev):

    -3.2102   0.0485   2.6442   3.4198   7.7410   9.0054  11.6717  13.4548

          k =-0.0833-0.5833 0.0833 (   425 PWs)   bands (ev):

    -4.2751   1.6097   3.6850   3.8959   7.2334   8.7901  11.9342  12.1387

          k =-0.2500 0.2500 0.2500 (   417 PWs)   bands (ev):

    -4.9786   2.1246   5.2354   5.2354   7.9692   9.4695   9.4695  12.7297

          k =-0.4167 0.4167 0.0833 (   417 PWs)   bands (ev):

    -4.3122   1.2013   3.1526   5.0678   8.7382   9.9575  10.1241  12.0277

          k = 0.4167-0.4167 0.9167 (   416 PWs)   bands (ev):

    -3.1567  -0.2171   2.0692   4.2990   8.0297  11.2581  11.3572  13.0568

          k = 0.2500-0.2500 0.7500 (   420 PWs)   bands (ev):

    -3.1050  -0.2952   2.5366   3.8271   7.5433  10.4173  11.6261  11.8516

          k =-0.2500 0.5833 0.2500 (   421 PWs)   bands (ev):

    -3.8964   0.4098   3.6031   4.1931   8.0104  10.1780  10.8440  11.0083

          k = 0.5833-0.2500 1.0833 (   415 PWs)   bands (ev):

    -2.9140  -0.3317   2.1676   3.4200   9.2104   9.7334  10.6979  13.3777

          k = 0.4167-0.0833 0.9167 (   418 PWs)   bands (ev):

    -2.0994  -1.0566   2.0093   2.7678   9.0129  10.2616  11.0310  12.4029

          k =-0.2500-1.0833 0.2500 (   422 PWs)   bands (ev):

    -2.3063  -0.9617   1.8854   3.6361   7.2731  10.1334  13.0016  13.1741

          k =-0.4167 0.4167 0.4167 (   422 PWs)   bands (ev):

    -3.8105  -0.3554   4.8521   4.8521   7.5402   9.3847   9.3847  13.7666

          k = 0.4167-0.4167 1.2500 (   414 PWs)   bands (ev):

    -3.2181  -0.6548   3.0590   4.4228   8.1755  10.0084  10.3631  13.8696

     highest occupied, lowest unoccupied level (ev):     5.8371    6.8169

!    total energy              =     -15.74126580 Ry
     Harris-Foulkes estimate   =     -15.74126580 Ry
     estimated scf accuracy    <          1.3E-12 Ry

     The total energy is the sum of the following terms:

     one-electron contribution =       4.59071501 Ry
     hartree contribution      =       1.11538634 Ry
     xc contribution           =      -4.78657657 Ry
     ewald contribution        =     -16.66079058 Ry

     convergence has been achieved in   8 iterations

     Forces acting on atoms (Ry/au):

     atom    1 type  1   force =     0.00000000    0.00000000    0.00000000
     atom    2 type  1   force =     0.00000000    0.00000000    0.00000000

     Total force =     0.000000     Total SCF correction =     0.000000


     entering subroutine stress ...

          total   stress  (Ry/bohr**3)                   (kbar)     P=   -1.21
  -0.00000826   0.00000000   0.00000000         -1.21      0.00      0.00
   0.00000000  -0.00000826   0.00000000          0.00     -1.21      0.00
   0.00000000   0.00000000  -0.00000826          0.00      0.00     -1.21


     Writing output data file si.save
 
     init_run     :      0.24s CPU      0.26s WALL (       1 calls)
     electrons    :      4.55s CPU      4.75s WALL (       1 calls)
     forces       :      0.02s CPU      0.02s WALL (       1 calls)
     stress       :      0.08s CPU      0.08s WALL (       1 calls)

     Called by init_run:
     wfcinit      :      0.16s CPU      0.17s WALL (       1 calls)
     potinit      :      0.02s CPU      0.02s WALL (       1 calls)

     Called by electrons:
     c_bands      :      3.72s CPU      3.87s WALL (       9 calls)
     sum_band     :      0.70s CPU      0.74s WALL (       9 calls)
     v_of_rho     :      0.12s CPU      0.12s WALL (       9 calls)
     mix_rho      :      0.01s CPU      0.01s WALL (       9 calls)

     Called by c_bands:
     init_us_2    :      0.08s CPU      0.08s WALL (     588 calls)
     cegterg      :      3.64s CPU      3.77s WALL (     252 calls)

     Called by *egterg:
     h_psi        :      3.26s CPU      3.41s WALL (     854 calls)
     g_psi        :      0.04s CPU      0.04s WALL (     574 calls)
     cdiaghg      :      0.18s CPU      0.19s WALL (     798 calls)

     Called by h_psi:
     add_vuspsi   :      0.05s CPU      0.05s WALL (     854 calls)

     General routines
     calbec       :      0.06s CPU      0.06s WALL (     910 calls)
     fft          :      0.06s CPU      0.05s WALL (     108 calls)
     fftw         :      3.39s CPU      3.52s WALL (   12278 calls)
     davcio       :      0.02s CPU      0.04s WALL (     840 calls)
 
 
     PWSCF        :     5.02s CPU         5.29s WALL

 
   This run was terminated on:   2: 6:16  23Jun2014            

=------------------------------------------------------------------------------=
   JOB DONE.
=------------------------------------------------------------------------------=
