
     Program PWSCF v.5.0        starts on 17Jun2012 at 21: 7:59 

     This program is part of the open-source Quantum ESPRESSO suite
     for quantum simulation of materials; please cite
         "P. Giannozzi et al., J. Phys.:Condens. Matter 21 395502 (2009);
          URL http://www.quantum-espresso.org", 
     in publications or presentations arising from this work. More details at
     http://www.quantum-espresso.org/quote.php

     Parallel version (MPI), running on     4 processors
     K-points division:     npool     =    4

     Current dimensions of program PWSCF are:
     Max number of different atomic species (ntypx) = 10
     Max number of k-points (npk) =  40000
     Max angular momentum in pseudopotentials (lmaxx) =  3
     Waiting for input...
     Reading input from standard input
               file O.pbe-rrkjus.UPF: wavefunction(s)  2S renormalized

     Atomic positions and unit cell read from directory:
     temp/cu2o.save/
 

     Subspace diagonalization in iterative solution of the eigenvalue problem:
     a serial algorithm will be used

 
     G-vector sticks info
     --------------------
     sticks:   dense  smooth     PW     G-vecs:    dense   smooth      PW
     Sum        1609     641    185                48501    12197    1863
 


     bravais-lattice index     =            1
     lattice parameter (alat)  =       8.2100  a.u.
     unit-cell volume          =     553.3877 (a.u.)^3
     number of atoms/cell      =            6
     number of atomic types    =            2
     number of electrons       =        56.00
     number of Kohn-Sham states=           32
     kinetic-energy cutoff     =      30.0000  Ry
     charge density cutoff     =     300.0000  Ry
     Exchange-correlation      =  SLA  PW   PBE  PBE ( 1 4 3 4 0)
     EXX-fraction              =        0.00

     celldm(1)=   8.210000  celldm(2)=   0.000000  celldm(3)=   0.000000
     celldm(4)=   0.000000  celldm(5)=   0.000000  celldm(6)=   0.000000

     crystal axes: (cart. coord. in units of alat)
               a(1) = (   1.000000   0.000000   0.000000 )  
               a(2) = (   0.000000   1.000000   0.000000 )  
               a(3) = (   0.000000   0.000000   1.000000 )  

     reciprocal axes: (cart. coord. in units 2 pi/alat)
               b(1) = (  1.000000  0.000000  0.000000 )  
               b(2) = (  0.000000  1.000000  0.000000 )  
               b(3) = (  0.000000  0.000000  1.000000 )  


     PseudoPot. # 1 for Cu read from file:
     ../pseudo/Cu.pbe-d-rrkjus.UPF
     MD5 check sum: 855c9c66b119533e70b4be5d3ca221fe
     Pseudo is Ultrasoft, Zval = 11.0
     Generated by new atomic code, or converted to UPF format
     Using radial grid of  899 points,  3 beta functions with: 
                l(1) =   2
                l(2) =   2
                l(3) =   1
     Q(r) pseudized with 0 coefficients 


     PseudoPot. # 2 for O  read from file:
     ../pseudo/O.pbe-rrkjus.UPF
     MD5 check sum: 390ba29e75625707450f3bd3f0eb6be9
     Pseudo is Ultrasoft, Zval =  6.0
     Generated by new atomic code, or converted to UPF format
     Using radial grid of 1269 points,  4 beta functions with: 
                l(1) =   0
                l(2) =   0
                l(3) =   1
                l(4) =   1
     Q(r) pseudized with 0 coefficients 


     atomic species   valence    mass     pseudopotential
        Cu            11.00     1.00000     Cu( 1.00)
        O              6.00     1.00000     O ( 1.00)
 -----
     simplified LDA+U calculation, Hubbard_lmax = 2
     atomic species  L   Hubbard U  Hubbard alpha
        Cu           2    0.000000    0.000000
        O            1    0.000000    0.000000
 -----

     24 Sym. Ops. (no inversion) found
          (note: 24 additional sym.ops. were found but ignored
           their fractional transations are incommensurate with FFT grid)


   Cartesian axes

     site n.     atom                  positions (alat units)
         1           Cu  tau(   1) = (   0.2500000   0.2500000   0.2500000  )
         2           Cu  tau(   2) = (   0.7500000   0.2500000   0.7500000  )
         3           Cu  tau(   3) = (   0.7500000   0.7500000   0.2500000  )
         4           Cu  tau(   4) = (   0.2500000   0.7500000   0.7500000  )
         5           O   tau(   5) = (   0.0000000   0.0000000   0.0000000  )
         6           O   tau(   6) = (   0.5000000   0.5000000   0.5000000  )

     number of k points=    10
                       cart. coord. in units 2pi/alat
        k(    1) = (   0.0000000   0.0000000   0.0000000), wk =   0.0312500
        k(    2) = (   0.0000000   0.0000000   0.2500000), wk =   0.1875000
        k(    3) = (   0.0000000   0.0000000  -0.5000000), wk =   0.0937500
        k(    4) = (   0.0000000   0.2500000   0.2500000), wk =   0.3750000
        k(    5) = (   0.0000000   0.2500000  -0.5000000), wk =   0.3750000
        k(    6) = (   0.0000000  -0.5000000  -0.5000000), wk =   0.0937500
        k(    7) = (   0.2500000   0.2500000   0.2500000), wk =   0.2500000
        k(    8) = (   0.2500000   0.2500000  -0.5000000), wk =   0.3750000
        k(    9) = (   0.2500000  -0.5000000  -0.5000000), wk =   0.1875000
        k(   10) = (  -0.5000000  -0.5000000  -0.5000000), wk =   0.0312500

     Dense  grid:    48501 G-vectors     FFT dimensions: (  45,  45,  45)

     Smooth grid:    12197 G-vectors     FFT dimensions: (  30,  30,  30)

     Largest allocated arrays     est. size (Mb)     dimensions
        Kohn-Sham Wavefunctions         0.77 Mb     (   1568,   32)
        Atomic wavefunctions            0.77 Mb     (   1568,   32)
        NL pseudopotentials             1.63 Mb     (   1568,   68)
        Each V/rho on FFT grid          1.39 Mb     (  91125)
        Each G-vector array             0.37 Mb     (  48501)
        G-vector shells                 0.00 Mb     (    428)
     Largest temporary arrays     est. size (Mb)     dimensions
        Auxiliary wavefunctions         3.06 Mb     (   1568,  128)
        Each subspace H/S matrix        0.25 Mb     ( 128, 128)
        Each <psi_i|beta_j> matrix      0.03 Mb     (     68,   32)

     The potential is recalculated from file :
     temp/cu2o.save/charge-density.dat

     Number of +U iterations with fixed ns =  0
     Starting occupations:
 --- enter write_ns ---
 LDA+U parameters:
U( 1)     =  0.00000000
alpha( 1) =  0.00000000
U( 2)     =  0.00000000
alpha( 2) =  0.00000000
atom    1   Tr[ns(na)] =   9.77643
    eigenvalues: 
  0.903  0.996  0.996  0.997  0.997
    eigenvectors:
  0.000  0.246  0.192  0.284  0.278
  0.333  0.015  0.360  0.272  0.020
  0.333  0.337  0.038  0.019  0.273
  0.000  0.192  0.246  0.278  0.284
  0.333  0.211  0.164  0.147  0.145
    occupations:
  0.996  0.000  0.000  0.000  0.001
  0.000  0.965 -0.031  0.000  0.031
  0.000 -0.031  0.965  0.000  0.031
  0.000  0.000  0.000  0.996  0.000
  0.001  0.031  0.031  0.000  0.965
atom    2   Tr[ns(na)] =   9.77643
    eigenvalues: 
  0.903  0.996  0.996  0.997  0.997
    eigenvectors:
  0.000  0.023  0.415  0.555  0.007
  0.333  0.344  0.031  0.047  0.245
  0.333  0.198  0.177  0.102  0.190
  0.000  0.415  0.023  0.007  0.555
  0.333  0.020  0.355  0.289  0.003
    occupations:
  0.996  0.000  0.000  0.000 -0.001
  0.000  0.965  0.031  0.000 -0.031
  0.000  0.031  0.965  0.000  0.031
  0.000  0.000  0.000  0.996  0.000
 -0.001 -0.031  0.031  0.000  0.965
atom    3   Tr[ns(na)] =   9.77643
    eigenvalues: 
  0.903  0.996  0.996  0.997  0.997
    eigenvectors:
  0.000  0.381  0.057  0.137  0.425
  0.333  0.009  0.366  0.292  0.000
  0.333  0.227  0.148  0.075  0.217
  0.000  0.057  0.381  0.425  0.137
  0.333  0.326  0.049  0.071  0.221
    occupations:
  0.996  0.000  0.000  0.000  0.001
  0.000  0.965 -0.031  0.000 -0.031
  0.000 -0.031  0.965  0.000 -0.031
  0.000  0.000  0.000  0.996  0.000
  0.001 -0.031 -0.031  0.000  0.965
atom    4   Tr[ns(na)] =   9.77643
    eigenvalues: 
  0.903  0.996  0.996  0.997  0.997
    eigenvectors:
  0.000  0.322  0.116  0.206  0.356
  0.333  0.287  0.088  0.044  0.248
  0.333  0.000  0.375  0.287  0.005
  0.000  0.116  0.322  0.356  0.206
  0.333  0.275  0.099  0.107  0.185
    occupations:
  0.996  0.000  0.000  0.000 -0.001
  0.000  0.965  0.031  0.000  0.031
  0.000  0.031  0.965  0.000 -0.031
  0.000  0.000  0.000  0.996  0.000
 -0.001  0.031 -0.031  0.000  0.965
atom    5   Tr[ns(na)] =   5.74448
    eigenvalues: 
  0.957  0.957  0.957
    eigenvectors:
  0.203  0.219  0.578
  0.678  0.012  0.309
  0.118  0.769  0.113
    occupations:
  0.957  0.000  0.000
  0.000  0.957  0.000
  0.000  0.000  0.957
atom    6   Tr[ns(na)] =   5.74452
    eigenvalues: 
  0.957  0.957  0.957
    eigenvectors:
  0.248  0.218  0.534
  0.655  0.003  0.343
  0.098  0.779  0.123
    occupations:
  0.957  0.000  0.000
  0.000  0.957  0.000
  0.000  0.000  0.957
N of occupied +U levels =  50.5947309
 --- exit write_ns ---
 Atomic wfc used for LDA+U Projector are NOT orthogonalized
     Starting wfc are   32 randomized atomic wfcs

     total cpu time spent up to now is        2.0 secs

     per-process dynamical memory:    25.9 Mb

     Band Structure Calculation
     Davidson diagonalization with overlap

     ethr =  1.79E-09,  avg # of iterations = 14.6

     total cpu time spent up to now is        4.9 secs

     End of band structure calculation

          k = 0.0000 0.0000 0.0000     band energies (ev):

   -11.0921 -10.4508   1.7601   1.7601   1.7601   3.9955   4.0890   4.0890
     4.0890   5.6248   5.6248   5.7457   5.7457   5.7457   6.5156   6.5156
     6.6313   6.6313   6.6313   6.6749   6.6749   6.6749   6.9949   6.9949
     6.9949   8.4052   8.4052   8.4052   8.8311   9.9407   9.9407  16.2145

          k = 0.0000 0.0000 0.2500     band energies (ev):

   -10.9963 -10.5423   1.9114   1.9714   1.9714   3.2138   3.5858   3.5858
     4.6033   5.7268   5.7416   5.9143   6.0948   6.0948   6.4855   6.4923
     6.5209   6.5548   6.6258   6.6258   6.7972   6.8818   6.8818   6.9393
     6.9393   7.2065   8.2718   8.2718   9.3782  10.7779  11.0423  15.4116

          k = 0.0000 0.0000-0.5000     band energies (ev):

   -10.7681 -10.7664   2.3419   2.3419   2.3991   2.3992   3.0133   3.0133
     5.3202   5.3202   6.0382   6.0383   6.2527   6.2527   6.4547   6.4547
     6.4683   6.4683   6.4871   6.4871   6.6543   6.6543   6.8647   6.8647
     7.2414   7.2414   8.0566   8.0566  10.5962  10.5965  12.7476  12.7476

          k = 0.0000 0.2500 0.2500     band energies (ev):

   -10.9245 -10.6027   1.7236   2.0779   2.4235   2.6811   3.3338   3.6513
     4.8282   5.7841   5.8237   6.0312   6.0548   6.2590   6.4219   6.4392
     6.4453   6.5237   6.5403   6.7151   6.7702   6.8105   6.8239   6.9559
     6.9881   7.2680   7.8913   8.1547   9.8012  11.0645  11.6003  13.8738

          k = 0.0000 0.2500-0.5000     band energies (ev):

   -10.7587 -10.7570   1.8815   1.8815   2.6880   2.6881   3.1915   3.1915
     5.4647   5.4647   5.9756   5.9756   6.2351   6.2351   6.3019   6.3019
     6.4409   6.4409   6.6568   6.6568   6.6904   6.6904   6.9327   6.9327
     7.1964   7.1964   7.9216   7.9216  10.6418  10.6420  12.3698  12.3699

          k = 0.0000-0.5000-0.5000     band energies (ev):

   -10.7493 -10.7475   1.6678   1.6678   2.7412   2.7412   3.3485   3.3485
     5.6740   5.6740   5.8835   5.8835   6.2975   6.2976   6.3050   6.3050
     6.3711   6.3711   6.6190   6.6190   6.6813   6.6813   6.9907   6.9907
     7.2265   7.2265   7.8161   7.8161  10.4199  10.4200  12.2143  12.2143

          k = 0.2500 0.2500 0.2500     band energies (ev):

   -10.8911 -10.6205   1.8813   1.8813   2.2702   2.8212   3.4067   3.4067
     5.0339   5.7582   5.7582   6.1792   6.1792   6.2263   6.3565   6.3565
     6.4604   6.4604   6.5618   6.7609   6.7609   6.7649   6.8606   6.8606
     6.9865   7.6278   7.6278   7.9568  10.2069  11.6343  11.6343  13.0821

          k = 0.2500 0.2500-0.5000     band energies (ev):

   -10.8514 -10.6445   1.7831   2.0203   2.0934   3.1233   3.1752   3.2628
     5.4177   5.5579   5.7611   6.1026   6.1424   6.2808   6.3367   6.3654
     6.4202   6.4626   6.6114   6.7162   6.7571   6.7883   6.8107   6.9235
     7.2191   7.3801   7.7344   7.8979  10.7577  11.2683  11.6593  12.9261

          k = 0.2500-0.5000-0.5000     band energies (ev):

   -10.8848 -10.5911   1.7593   1.7593   2.1558   3.1311   3.3004   3.3004
     5.5508   5.5508   5.5570   6.0778   6.0921   6.3205   6.3205   6.3732
     6.5149   6.5149   6.5638   6.6349   6.8132   6.8132   6.8360   6.8672
     7.5269   7.5269   7.5612   7.8800  10.3861  11.7781  11.7781  11.8999

          k =-0.5000-0.5000-0.5000     band energies (ev):

   -10.9359 -10.5190   1.8559   1.8559   1.8559   3.2572   3.2572   3.2572
     5.4638   5.4638   5.4638   6.0034   6.0034   6.3197   6.3197   6.3197
     6.5706   6.5706   6.5706   6.7033   6.7033   6.7033   6.9505   6.9505
     7.4040   7.8998   7.8998   7.8998  11.0677  11.0677  11.0677  13.2335

     highest occupied, lowest unoccupied level (ev):     8.4052    8.8311

     Writing output data file cu2o.save
 
     init_run     :      1.61s CPU      1.78s WALL (       1 calls)
     electrons    :      2.88s CPU      2.92s WALL (       1 calls)

     Called by init_run:
     wfcinit      :      0.02s CPU      0.04s WALL (       1 calls)
     potinit      :      0.14s CPU      0.18s WALL (       1 calls)

     Called by electrons:
     c_bands      :      2.88s CPU      2.92s WALL (       1 calls)
     v_of_rho     :      0.10s CPU      0.12s WALL (       1 calls)
     newd         :      0.43s CPU      0.54s WALL (       1 calls)

     Called by c_bands:
     init_us_2    :      0.01s CPU      0.01s WALL (       6 calls)
     cegterg      :      2.62s CPU      2.66s WALL (       4 calls)

     Called by *egterg:
     h_psi        :      1.87s CPU      1.88s WALL (      62 calls)
     s_psi        :      0.12s CPU      0.12s WALL (      65 calls)
     g_psi        :      0.02s CPU      0.02s WALL (      55 calls)
     cdiaghg      :      0.26s CPU      0.26s WALL (      58 calls)

     Called by h_psi:
     add_vuspsi   :      0.11s CPU      0.10s WALL (      62 calls)

     General routines
     calbec       :      0.18s CPU      0.18s WALL (     127 calls)
     fft          :      0.06s CPU      0.07s WALL (      12 calls)
     ffts         :      0.00s CPU      0.00s WALL (       1 calls)
     fftw         :      1.21s CPU      1.23s WALL (    1882 calls)
     interpolate  :      0.00s CPU      0.01s WALL (       1 calls)
     davcio       :      0.00s CPU      0.01s WALL (      12 calls)
 
     Parallel routines
     fft_scatter  :      0.06s CPU      0.08s WALL (    1895 calls)
     EXX routines
 
     PWSCF        :     4.75s CPU         5.00s WALL

 
   This run was terminated on:  21: 8: 4  17Jun2012            

=------------------------------------------------------------------------------=
   JOB DONE.
=------------------------------------------------------------------------------=
