
     Program PROJWFC v.5.0      starts on 17Jun2012 at 21: 8: 4 

     This program is part of the open-source Quantum ESPRESSO suite
     for quantum simulation of materials; please cite
         "P. Giannozzi et al., J. Phys.:Condens. Matter 21 395502 (2009);
          URL http://www.quantum-espresso.org", 
     in publications or presentations arising from this work. More details at
     http://www.quantum-espresso.org/quote.php

     Parallel version (MPI), running on     4 processors
     K-points division:     npool     =    4

   Info: using nr1, nr2, nr3 values from input

   Info: using nr1s, nr2s, nr3s values from input

     IMPORTANT: XC functional enforced from input :
     Exchange-correlation      =  SLA  PW   PBE  PBE ( 1 4 3 4 0)
     EXX-fraction              =        0.00
     Any further DFT definition will be discarded
     Please, verify this is what you really want

               file O.pbe-rrkjus.UPF: wavefunction(s)  2S renormalized
 
     G-vector sticks info
     --------------------
     sticks:   dense  smooth     PW     G-vecs:    dense   smooth      PW
     Sum        1609     641    185                48501    12197    1863
 

     Gaussian broadening (default values): ngauss,degauss=   0    0.007350


     Calling projwave .... 

     Atomic states used for projection
     (read from pseudopotential files):

     state #   1: atom   1 (Cu ), wfc  1 (l=2 m= 1)
     state #   2: atom   1 (Cu ), wfc  1 (l=2 m= 2)
     state #   3: atom   1 (Cu ), wfc  1 (l=2 m= 3)
     state #   4: atom   1 (Cu ), wfc  1 (l=2 m= 4)
     state #   5: atom   1 (Cu ), wfc  1 (l=2 m= 5)
     state #   6: atom   1 (Cu ), wfc  2 (l=0 m= 1)
     state #   7: atom   2 (Cu ), wfc  1 (l=2 m= 1)
     state #   8: atom   2 (Cu ), wfc  1 (l=2 m= 2)
     state #   9: atom   2 (Cu ), wfc  1 (l=2 m= 3)
     state #  10: atom   2 (Cu ), wfc  1 (l=2 m= 4)
     state #  11: atom   2 (Cu ), wfc  1 (l=2 m= 5)
     state #  12: atom   2 (Cu ), wfc  2 (l=0 m= 1)
     state #  13: atom   3 (Cu ), wfc  1 (l=2 m= 1)
     state #  14: atom   3 (Cu ), wfc  1 (l=2 m= 2)
     state #  15: atom   3 (Cu ), wfc  1 (l=2 m= 3)
     state #  16: atom   3 (Cu ), wfc  1 (l=2 m= 4)
     state #  17: atom   3 (Cu ), wfc  1 (l=2 m= 5)
     state #  18: atom   3 (Cu ), wfc  2 (l=0 m= 1)
     state #  19: atom   4 (Cu ), wfc  1 (l=2 m= 1)
     state #  20: atom   4 (Cu ), wfc  1 (l=2 m= 2)
     state #  21: atom   4 (Cu ), wfc  1 (l=2 m= 3)
     state #  22: atom   4 (Cu ), wfc  1 (l=2 m= 4)
     state #  23: atom   4 (Cu ), wfc  1 (l=2 m= 5)
     state #  24: atom   4 (Cu ), wfc  2 (l=0 m= 1)
     state #  25: atom   5 (O  ), wfc  1 (l=0 m= 1)
     state #  26: atom   5 (O  ), wfc  2 (l=1 m= 1)
     state #  27: atom   5 (O  ), wfc  2 (l=1 m= 2)
     state #  28: atom   5 (O  ), wfc  2 (l=1 m= 3)
     state #  29: atom   6 (O  ), wfc  1 (l=0 m= 1)
     state #  30: atom   6 (O  ), wfc  2 (l=1 m= 1)
     state #  31: atom   6 (O  ), wfc  2 (l=1 m= 2)
     state #  32: atom   6 (O  ), wfc  2 (l=1 m= 3)

 k =   0.0000000000  0.0000000000  0.0000000000
==== e(   1) =   -11.09208 eV ==== 
     psi = 0.376*[#  25]+0.373*[#  29]+0.048*[#   6]+0.048*[#  12]+0.048*[#  18]+
          +0.048*[#  24]+0.005*[#   2]+0.005*[#   3]+0.005*[#   5]+0.005*[#   8]+
          +0.005*[#   9]+0.005*[#  11]+0.005*[#  14]+0.005*[#  15]+0.005*[#  17]+
          +0.005*[#  20]+0.005*[#  21]+0.005*[#  23]+
    |psi|^2 = 0.999
==== e(   2) =   -10.45081 eV ==== 
     psi = 0.499*[#  29]+0.497*[#  25]+
    |psi|^2 = 0.996
==== e(   3) =     1.76011 eV ==== 
     psi = 0.108*[#  26]+0.108*[#  27]+0.108*[#  28]+0.108*[#  30]+0.108*[#  31]+
          +0.108*[#  32]+0.016*[#   1]+0.016*[#   4]+0.016*[#   7]+0.016*[#  10]+
          +0.016*[#  13]+0.016*[#  16]+0.016*[#  19]+0.016*[#  22]+0.014*[#   6]+
          +0.014*[#  12]+0.014*[#  18]+0.014*[#  24]+0.014*[#   2]+0.014*[#   3]+
          +0.014*[#   5]+0.014*[#   8]+0.014*[#   9]+0.014*[#  11]+0.014*[#  14]+
          +0.014*[#  15]+0.014*[#  17]+0.014*[#  20]+0.014*[#  21]+0.014*[#  23]+
    |psi|^2 = 0.999
==== e(   4) =     1.76011 eV ==== 
     psi = 0.108*[#  26]+0.108*[#  27]+0.108*[#  28]+0.108*[#  30]+0.108*[#  31]+
          +0.108*[#  32]+0.016*[#   1]+0.016*[#   4]+0.016*[#   7]+0.016*[#  10]+
          +0.016*[#  13]+0.016*[#  16]+0.016*[#  19]+0.016*[#  22]+0.014*[#   6]+
          +0.014*[#  12]+0.014*[#  18]+0.014*[#  24]+0.014*[#   2]+0.014*[#   3]+
          +0.014*[#   5]+0.014*[#   8]+0.014*[#   9]+0.014*[#  11]+0.014*[#  14]+
          +0.014*[#  15]+0.014*[#  17]+0.014*[#  20]+0.014*[#  21]+0.014*[#  23]+
    |psi|^2 = 0.999
==== e(   5) =     1.76011 eV ==== 
     psi = 0.108*[#  26]+0.108*[#  27]+0.108*[#  28]+0.108*[#  30]+0.108*[#  31]+
          +0.108*[#  32]+0.016*[#   1]+0.016*[#   4]+0.016*[#   7]+0.016*[#  10]+
          +0.016*[#  13]+0.016*[#  16]+0.016*[#  19]+0.016*[#  22]+0.014*[#   6]+
          +0.014*[#  12]+0.014*[#  18]+0.014*[#  24]+0.014*[#   2]+0.014*[#   3]+
          +0.014*[#   5]+0.014*[#   8]+0.014*[#   9]+0.014*[#  11]+0.014*[#  14]+
          +0.014*[#  15]+0.014*[#  17]+0.014*[#  20]+0.014*[#  21]+0.014*[#  23]+
    |psi|^2 = 0.999
==== e(   6) =     3.99554 eV ==== 
     psi = 0.146*[#   6]+0.146*[#  12]+0.146*[#  18]+0.146*[#  24]+0.030*[#   2]+
          +0.030*[#   3]+0.030*[#   5]+0.030*[#   8]+0.030*[#   9]+0.030*[#  11]+
          +0.030*[#  14]+0.030*[#  15]+0.030*[#  17]+0.030*[#  20]+0.030*[#  21]+
          +0.030*[#  23]+0.025*[#  25]+0.025*[#  29]+
    |psi|^2 = 0.997
==== e(   7) =     4.08898 eV ==== 
     psi = 0.164*[#  26]+0.164*[#  27]+0.164*[#  28]+0.164*[#  30]+0.164*[#  31]+
          +0.164*[#  32]+
    |psi|^2 = 0.987
==== e(   8) =     4.08898 eV ==== 
     psi = 0.164*[#  26]+0.164*[#  27]+0.164*[#  28]+0.164*[#  30]+0.164*[#  31]+
          +0.164*[#  32]+
    |psi|^2 = 0.987
==== e(   9) =     4.08898 eV ==== 
     psi = 0.164*[#  26]+0.164*[#  27]+0.164*[#  28]+0.164*[#  30]+0.164*[#  31]+
          +0.164*[#  32]+
    |psi|^2 = 0.987
==== e(  10) =     5.62484 eV ==== 
     psi = 0.080*[#   2]+0.080*[#   3]+0.080*[#   5]+0.080*[#   8]+0.080*[#   9]+
          +0.080*[#  11]+0.080*[#  14]+0.080*[#  15]+0.080*[#  17]+0.080*[#  20]+
          +0.080*[#  21]+0.080*[#  23]+0.005*[#   1]+0.005*[#   4]+0.005*[#   7]+
          +0.005*[#  10]+0.005*[#  13]+0.005*[#  16]+0.005*[#  19]+0.005*[#  22]+
    |psi|^2 = 0.999
==== e(  11) =     5.62484 eV ==== 
     psi = 0.080*[#   2]+0.080*[#   3]+0.080*[#   5]+0.080*[#   8]+0.080*[#   9]+
          +0.080*[#  11]+0.080*[#  14]+0.080*[#  15]+0.080*[#  17]+0.080*[#  20]+
          +0.080*[#  21]+0.080*[#  23]+0.005*[#   1]+0.005*[#   4]+0.005*[#   7]+
          +0.005*[#  10]+0.005*[#  13]+0.005*[#  16]+0.005*[#  19]+0.005*[#  22]+
    |psi|^2 = 0.999
==== e(  12) =     5.74572 eV ==== 
     psi = 0.078*[#   1]+0.078*[#   4]+0.078*[#   7]+0.078*[#  10]+0.078*[#  13]+
          +0.078*[#  16]+0.078*[#  19]+0.078*[#  22]+0.030*[#   2]+0.030*[#   3]+
          +0.030*[#   5]+0.030*[#   8]+0.030*[#   9]+0.030*[#  11]+0.030*[#  14]+
          +0.030*[#  15]+0.030*[#  17]+0.030*[#  20]+0.030*[#  21]+0.030*[#  23]+
          +0.002*[#   6]+0.002*[#  12]+0.002*[#  18]+0.002*[#  24]+
    |psi|^2 = 0.999
==== e(  13) =     5.74572 eV ==== 
     psi = 0.078*[#   1]+0.078*[#   4]+0.078*[#   7]+0.078*[#  10]+0.078*[#  13]+
          +0.078*[#  16]+0.078*[#  19]+0.078*[#  22]+0.030*[#   2]+0.030*[#   3]+
          +0.030*[#   5]+0.030*[#   8]+0.030*[#   9]+0.030*[#  11]+0.030*[#  14]+
          +0.030*[#  15]+0.030*[#  17]+0.030*[#  20]+0.030*[#  21]+0.030*[#  23]+
          +0.002*[#   6]+0.002*[#  12]+0.002*[#  18]+0.002*[#  24]+
    |psi|^2 = 0.999
==== e(  14) =     5.74572 eV ==== 
     psi = 0.078*[#   1]+0.078*[#   4]+0.078*[#   7]+0.078*[#  10]+0.078*[#  13]+
          +0.078*[#  16]+0.078*[#  19]+0.078*[#  22]+0.030*[#   2]+0.030*[#   3]+
          +0.030*[#   5]+0.030*[#   8]+0.030*[#   9]+0.030*[#  11]+0.030*[#  14]+
          +0.030*[#  15]+0.030*[#  17]+0.030*[#  20]+0.030*[#  21]+0.030*[#  23]+
          +0.002*[#   6]+0.002*[#  12]+0.002*[#  18]+0.002*[#  24]+
    |psi|^2 = 0.999
==== e(  15) =     6.51558 eV ==== 
     psi = 0.120*[#   1]+0.120*[#   4]+0.120*[#   7]+0.120*[#  10]+0.120*[#  13]+
          +0.120*[#  16]+0.120*[#  19]+0.120*[#  22]+0.003*[#   2]+0.003*[#   3]+
          +0.003*[#   5]+0.003*[#   8]+0.003*[#   9]+0.003*[#  11]+0.003*[#  14]+
          +0.003*[#  15]+0.003*[#  17]+0.003*[#  20]+0.003*[#  21]+0.003*[#  23]+
    |psi|^2 = 1.000
==== e(  16) =     6.51558 eV ==== 
     psi = 0.120*[#   1]+0.120*[#   4]+0.120*[#   7]+0.120*[#  10]+0.120*[#  13]+
          +0.120*[#  16]+0.120*[#  19]+0.120*[#  22]+0.003*[#   2]+0.003*[#   3]+
          +0.003*[#   5]+0.003*[#   8]+0.003*[#   9]+0.003*[#  11]+0.003*[#  14]+
          +0.003*[#  15]+0.003*[#  17]+0.003*[#  20]+0.003*[#  21]+0.003*[#  23]+
    |psi|^2 = 1.000
==== e(  17) =     6.63130 eV ==== 
     psi = 0.083*[#   2]+0.083*[#   3]+0.083*[#   5]+0.083*[#   8]+0.083*[#   9]+
          +0.083*[#  11]+0.083*[#  14]+0.083*[#  15]+0.083*[#  17]+0.083*[#  20]+
          +0.083*[#  21]+0.083*[#  23]+
    |psi|^2 = 1.000
==== e(  18) =     6.63130 eV ==== 
     psi = 0.083*[#   2]+0.083*[#   3]+0.083*[#   5]+0.083*[#   8]+0.083*[#   9]+
          +0.083*[#  11]+0.083*[#  14]+0.083*[#  15]+0.083*[#  17]+0.083*[#  20]+
          +0.083*[#  21]+0.083*[#  23]+
    |psi|^2 = 1.000
==== e(  19) =     6.63130 eV ==== 
     psi = 0.083*[#   2]+0.083*[#   3]+0.083*[#   5]+0.083*[#   8]+0.083*[#   9]+
          +0.083*[#  11]+0.083*[#  14]+0.083*[#  15]+0.083*[#  17]+0.083*[#  20]+
          +0.083*[#  21]+0.083*[#  23]+
    |psi|^2 = 1.000
==== e(  20) =     6.67488 eV ==== 
     psi = 0.097*[#   1]+0.097*[#   4]+0.097*[#   7]+0.097*[#  10]+0.097*[#  13]+
          +0.097*[#  16]+0.097*[#  19]+0.097*[#  22]+0.019*[#   2]+0.019*[#   3]+
          +0.019*[#   5]+0.019*[#   8]+0.019*[#   9]+0.019*[#  11]+0.019*[#  14]+
          +0.019*[#  15]+0.019*[#  17]+0.019*[#  20]+0.019*[#  21]+0.019*[#  23]+
    |psi|^2 = 1.000
==== e(  21) =     6.67488 eV ==== 
     psi = 0.097*[#   1]+0.097*[#   4]+0.097*[#   7]+0.097*[#  10]+0.097*[#  13]+
          +0.097*[#  16]+0.097*[#  19]+0.097*[#  22]+0.019*[#   2]+0.019*[#   3]+
          +0.019*[#   5]+0.019*[#   8]+0.019*[#   9]+0.019*[#  11]+0.019*[#  14]+
          +0.019*[#  15]+0.019*[#  17]+0.019*[#  20]+0.019*[#  21]+0.019*[#  23]+
    |psi|^2 = 1.000
==== e(  22) =     6.67488 eV ==== 
     psi = 0.097*[#   1]+0.097*[#   4]+0.097*[#   7]+0.097*[#  10]+0.097*[#  13]+
          +0.097*[#  16]+0.097*[#  19]+0.097*[#  22]+0.019*[#   2]+0.019*[#   3]+
          +0.019*[#   5]+0.019*[#   8]+0.019*[#   9]+0.019*[#  11]+0.019*[#  14]+
          +0.019*[#  15]+0.019*[#  17]+0.019*[#  20]+0.019*[#  21]+0.019*[#  23]+
    |psi|^2 = 1.000
==== e(  23) =     6.99489 eV ==== 
     psi = 0.065*[#   2]+0.065*[#   3]+0.065*[#   5]+0.065*[#   8]+0.065*[#   9]+
          +0.065*[#  11]+0.065*[#  14]+0.065*[#  15]+0.065*[#  17]+0.065*[#  20]+
          +0.065*[#  21]+0.065*[#  23]+0.028*[#   1]+0.028*[#   4]+0.028*[#   7]+
          +0.028*[#  10]+0.028*[#  13]+0.028*[#  16]+0.028*[#  19]+0.028*[#  22]+
    |psi|^2 = 1.000
==== e(  24) =     6.99489 eV ==== 
     psi = 0.065*[#   2]+0.065*[#   3]+0.065*[#   5]+0.065*[#   8]+0.065*[#   9]+
          +0.065*[#  11]+0.065*[#  14]+0.065*[#  15]+0.065*[#  17]+0.065*[#  20]+
          +0.065*[#  21]+0.065*[#  23]+0.028*[#   1]+0.028*[#   4]+0.028*[#   7]+
          +0.028*[#  10]+0.028*[#  13]+0.028*[#  16]+0.028*[#  19]+0.028*[#  22]+
    |psi|^2 = 1.000
==== e(  25) =     6.99489 eV ==== 
     psi = 0.065*[#   2]+0.065*[#   3]+0.065*[#   5]+0.065*[#   8]+0.065*[#   9]+
          +0.065*[#  11]+0.065*[#  14]+0.065*[#  15]+0.065*[#  17]+0.065*[#  20]+
          +0.065*[#  21]+0.065*[#  23]+0.028*[#   1]+0.028*[#   4]+0.028*[#   7]+
          +0.028*[#  10]+0.028*[#  13]+0.028*[#  16]+0.028*[#  19]+0.028*[#  22]+
    |psi|^2 = 1.000
==== e(  26) =     8.40517 eV ==== 
     psi = 0.036*[#   2]+0.036*[#   3]+0.036*[#   5]+0.036*[#   8]+0.036*[#   9]+
          +0.036*[#  11]+0.036*[#  14]+0.036*[#  15]+0.036*[#  17]+0.036*[#  20]+
          +0.036*[#  21]+0.036*[#  23]+0.034*[#  26]+0.034*[#  27]+0.034*[#  28]+
          +0.034*[#  30]+0.034*[#  31]+0.034*[#  32]+0.031*[#   1]+0.031*[#   4]+
          +0.031*[#   7]+0.031*[#  10]+0.031*[#  13]+0.031*[#  16]+0.031*[#  19]+
          +0.031*[#  22]+0.026*[#   6]+0.026*[#  12]+0.026*[#  18]+0.026*[#  24]+
    |psi|^2 = 0.993
==== e(  27) =     8.40517 eV ==== 
     psi = 0.036*[#   2]+0.036*[#   3]+0.036*[#   5]+0.036*[#   8]+0.036*[#   9]+
          +0.036*[#  11]+0.036*[#  14]+0.036*[#  15]+0.036*[#  17]+0.036*[#  20]+
          +0.036*[#  21]+0.036*[#  23]+0.034*[#  26]+0.034*[#  27]+0.034*[#  28]+
          +0.034*[#  30]+0.034*[#  31]+0.034*[#  32]+0.031*[#   1]+0.031*[#   4]+
          +0.031*[#   7]+0.031*[#  10]+0.031*[#  13]+0.031*[#  16]+0.031*[#  19]+
          +0.031*[#  22]+0.026*[#   6]+0.026*[#  12]+0.026*[#  18]+0.026*[#  24]+
    |psi|^2 = 0.993
==== e(  28) =     8.40517 eV ==== 
     psi = 0.036*[#   2]+0.036*[#   3]+0.036*[#   5]+0.036*[#   8]+0.036*[#   9]+
          +0.036*[#  11]+0.036*[#  14]+0.036*[#  15]+0.036*[#  17]+0.036*[#  20]+
          +0.036*[#  21]+0.036*[#  23]+0.034*[#  26]+0.034*[#  27]+0.034*[#  28]+
          +0.034*[#  30]+0.034*[#  31]+0.034*[#  32]+0.031*[#   1]+0.031*[#   4]+
          +0.031*[#   7]+0.031*[#  10]+0.031*[#  13]+0.031*[#  16]+0.031*[#  19]+
          +0.031*[#  22]+0.026*[#   6]+0.026*[#  12]+0.026*[#  18]+0.026*[#  24]+
    |psi|^2 = 0.993
==== e(  29) =     8.83112 eV ==== 
     psi = 0.097*[#  25]+0.097*[#  29]+0.054*[#   6]+0.054*[#  12]+0.054*[#  18]+
          +0.054*[#  24]+0.048*[#   2]+0.048*[#   3]+0.048*[#   5]+0.048*[#   8]+
          +0.048*[#   9]+0.048*[#  11]+0.048*[#  14]+0.048*[#  15]+0.048*[#  17]+
          +0.048*[#  20]+0.048*[#  21]+0.048*[#  23]+
    |psi|^2 = 0.981
==== e(  30) =     9.94074 eV ==== 
     psi = 
    |psi|^2 = 0.000
==== e(  31) =     9.94074 eV ==== 
     psi = 
    |psi|^2 = 0.000
==== e(  32) =    16.21452 eV ==== 
     psi = 0.187*[#   6]+0.187*[#  12]+0.187*[#  18]+0.187*[#  24]+0.021*[#  26]+
          +0.021*[#  27]+0.021*[#  28]+0.021*[#  30]+0.021*[#  31]+0.021*[#  32]+
          +0.003*[#   2]+0.003*[#   3]+0.003*[#   5]+0.003*[#   8]+0.003*[#   9]+
          +0.003*[#  11]+0.003*[#  14]+0.003*[#  15]+0.003*[#  17]+0.003*[#  20]+
          +0.003*[#  21]+0.003*[#  23]+
    |psi|^2 = 0.914

 k =   0.0000000000  0.0000000000  0.2500000000
==== e(   1) =   -10.99626 eV ==== 
     psi = 0.391*[#  25]+0.387*[#  29]+0.042*[#   6]+0.042*[#  12]+0.042*[#  18]+
          +0.042*[#  24]+0.004*[#   2]+0.004*[#   3]+0.004*[#   5]+0.004*[#   8]+
          +0.004*[#   9]+0.004*[#  11]+0.004*[#  14]+0.004*[#  15]+0.004*[#  17]+
          +0.004*[#  20]+0.004*[#  21]+0.004*[#  23]+
    |psi|^2 = 0.998
==== e(   2) =   -10.54232 eV ==== 
     psi = 0.478*[#  29]+0.474*[#  25]+0.008*[#   6]+0.008*[#  12]+0.008*[#  18]+
          +0.008*[#  24]+0.001*[#   2]+0.001*[#   3]+0.001*[#   5]+0.001*[#   8]+
          +0.001*[#   9]+0.001*[#  11]+0.001*[#  14]+0.001*[#  15]+0.001*[#  17]+
          +0.001*[#  20]+0.001*[#  21]+0.001*[#  23]+
    |psi|^2 = 0.997
==== e(   3) =     1.91144 eV ==== 
     psi = 0.111*[#  26]+0.111*[#  27]+0.111*[#  28]+0.111*[#  30]+0.111*[#  31]+
          +0.111*[#  32]+0.020*[#   6]+0.020*[#  12]+0.020*[#  18]+0.020*[#  24]+
          +0.013*[#   1]+0.013*[#   4]+0.013*[#   7]+0.013*[#  10]+0.013*[#  13]+
          +0.013*[#  16]+0.013*[#  19]+0.013*[#  22]+0.011*[#   2]+0.011*[#   3]+
          +0.011*[#   5]+0.011*[#   8]+0.011*[#   9]+0.011*[#  11]+0.011*[#  14]+
          +0.011*[#  15]+0.011*[#  17]+0.011*[#  20]+0.011*[#  21]+0.011*[#  23]+
          +0.004*[#  25]+0.004*[#  29]+
    |psi|^2 = 0.994
==== e(   4) =     1.97142 eV ==== 
     psi = 0.110*[#  26]+0.110*[#  27]+0.110*[#  28]+0.110*[#  30]+0.110*[#  31]+
          +0.110*[#  32]+0.015*[#   2]+0.015*[#   3]+0.015*[#   5]+0.015*[#   8]+
          +0.015*[#   9]+0.015*[#  11]+0.015*[#  14]+0.015*[#  15]+0.015*[#  17]+
          +0.015*[#  20]+0.015*[#  21]+0.015*[#  23]+0.013*[#   1]+0.013*[#   4]+
          +0.013*[#   7]+0.013*[#  10]+0.013*[#  13]+0.013*[#  16]+0.013*[#  19]+
          +0.013*[#  22]+0.012*[#   6]+0.012*[#  12]+0.012*[#  18]+0.012*[#  24]+
    |psi|^2 = 0.998
==== e(   5) =     1.97142 eV ==== 
     psi = 0.110*[#  26]+0.110*[#  27]+0.110*[#  28]+0.110*[#  30]+0.110*[#  31]+
          +0.110*[#  32]+0.015*[#   2]+0.015*[#   3]+0.015*[#   5]+0.015*[#   8]+
          +0.015*[#   9]+0.015*[#  11]+0.015*[#  14]+0.015*[#  15]+0.015*[#  17]+
          +0.015*[#  20]+0.015*[#  21]+0.015*[#  23]+0.013*[#   1]+0.013*[#   4]+
          +0.013*[#   7]+0.013*[#  10]+0.013*[#  13]+0.013*[#  16]+0.013*[#  19]+
          +0.013*[#  22]+0.012*[#   6]+0.012*[#  12]+0.012*[#  18]+0.012*[#  24]+
    |psi|^2 = 0.998
==== e(   6) =     3.21382 eV ==== 
     psi = 0.114*[#  26]+0.114*[#  27]+0.114*[#  28]+0.114*[#  30]+0.114*[#  31]+
          +0.114*[#  32]+0.052*[#   6]+0.052*[#  12]+0.052*[#  18]+0.052*[#  24]+
          +0.018*[#  25]+0.018*[#  29]+0.003*[#   2]+0.003*[#   3]+0.003*[#   5]+
          +0.003*[#   8]+0.003*[#   9]+0.003*[#  11]+0.003*[#  14]+0.003*[#  15]+
          +0.003*[#  17]+0.003*[#  20]+0.003*[#  21]+0.003*[#  23]+0.003*[#   1]+
          +0.003*[#   4]+0.003*[#   7]+0.003*[#  10]+0.003*[#  13]+0.003*[#  16]+
          +0.003*[#  19]+0.003*[#  22]+
    |psi|^2 = 0.987
==== e(   7) =     3.58582 eV ==== 
     psi = 0.137*[#  26]+0.137*[#  27]+0.137*[#  28]+0.138*[#  30]+0.138*[#  31]+
          +0.138*[#  32]+0.013*[#   1]+0.013*[#   4]+0.013*[#   7]+0.013*[#  10]+
          +0.013*[#  13]+0.013*[#  16]+0.013*[#  19]+0.013*[#  22]+0.005*[#   2]+
          +0.005*[#   3]+0.005*[#   5]+0.005*[#   8]+0.005*[#   9]+0.005*[#  11]+
          +0.005*[#  14]+0.005*[#  15]+0.005*[#  17]+0.005*[#  20]+0.005*[#  21]+
          +0.005*[#  23]+
    |psi|^2 = 0.990
==== e(   8) =     3.58582 eV ==== 
     psi = 0.137*[#  26]+0.137*[#  27]+0.137*[#  28]+0.138*[#  30]+0.138*[#  31]+
          +0.138*[#  32]+0.013*[#   1]+0.013*[#   4]+0.013*[#   7]+0.013*[#  10]+
          +0.013*[#  13]+0.013*[#  16]+0.013*[#  19]+0.013*[#  22]+0.005*[#   2]+
          +0.005*[#   3]+0.005*[#   5]+0.005*[#   8]+0.005*[#   9]+0.005*[#  11]+
          +0.005*[#  14]+0.005*[#  15]+0.005*[#  17]+0.005*[#  20]+0.005*[#  21]+
          +0.005*[#  23]+
    |psi|^2 = 0.990
==== e(   9) =     4.60334 eV ==== 
     psi = 0.089*[#   6]+0.089*[#  12]+0.089*[#  18]+0.089*[#  24]+0.041*[#   2]+
          +0.041*[#   3]+0.041*[#   5]+0.041*[#   8]+0.041*[#   9]+0.041*[#  11]+
          +0.041*[#  14]+0.041*[#  15]+0.041*[#  17]+0.041*[#  20]+0.041*[#  21]+
          +0.041*[#  23]+0.023*[#  26]+0.023*[#  27]+0.023*[#  28]+0.023*[#  30]+
          +0.023*[#  31]+0.023*[#  32]+0.006*[#  25]+0.006*[#  29]+
    |psi|^2 = 0.997
==== e(  10) =     5.72676 eV ==== 
     psi = 0.080*[#   2]+0.080*[#   3]+0.080*[#   5]+0.080*[#   8]+0.080*[#   9]+
          +0.080*[#  11]+0.080*[#  14]+0.080*[#  15]+0.080*[#  17]+0.080*[#  20]+
          +0.080*[#  21]+0.080*[#  23]+0.005*[#   1]+0.005*[#   4]+0.005*[#   7]+
          +0.005*[#  10]+0.005*[#  13]+0.005*[#  16]+0.005*[#  19]+0.005*[#  22]+
    |psi|^2 = 0.997
==== e(  11) =     5.74157 eV ==== 
     psi = 0.061*[#   1]+0.061*[#   4]+0.061*[#   7]+0.061*[#  10]+0.061*[#  13]+
          +0.061*[#  16]+0.061*[#  19]+0.061*[#  22]+0.037*[#   2]+0.037*[#   3]+
          +0.037*[#   5]+0.037*[#   8]+0.037*[#   9]+0.037*[#  11]+0.037*[#  14]+
          +0.037*[#  15]+0.037*[#  17]+0.037*[#  20]+0.037*[#  21]+0.037*[#  23]+
          +0.015*[#   6]+0.015*[#  12]+0.015*[#  18]+0.015*[#  24]+
    |psi|^2 = 0.996
==== e(  12) =     5.91426 eV ==== 
     psi = 0.078*[#   2]+0.078*[#   3]+0.078*[#   5]+0.078*[#   8]+0.078*[#   9]+
          +0.078*[#  11]+0.078*[#  14]+0.078*[#  15]+0.078*[#  17]+0.078*[#  20]+
          +0.078*[#  21]+0.078*[#  23]+0.009*[#  26]+0.009*[#  27]+0.009*[#  28]+
          +0.009*[#  30]+0.009*[#  31]+0.009*[#  32]+
    |psi|^2 = 0.998
==== e(  13) =     6.09477 eV ==== 
     psi = 0.073*[#   1]+0.073*[#   4]+0.073*[#   7]+0.073*[#  10]+0.073*[#  13]+
          +0.073*[#  16]+0.073*[#  19]+0.073*[#  22]+0.029*[#   2]+0.029*[#   3]+
          +0.029*[#   5]+0.029*[#   8]+0.029*[#   9]+0.029*[#  11]+0.029*[#  14]+
          +0.029*[#  15]+0.029*[#  17]+0.029*[#  20]+0.029*[#  21]+0.029*[#  23]+
          +0.010*[#  26]+0.010*[#  27]+0.010*[#  28]+0.010*[#  30]+0.010*[#  31]+
          +0.010*[#  32]+0.002*[#   6]+0.002*[#  12]+0.002*[#  18]+0.002*[#  24]+
    |psi|^2 = 0.998
==== e(  14) =     6.09477 eV ==== 
     psi = 0.073*[#   1]+0.073*[#   4]+0.073*[#   7]+0.073*[#  10]+0.073*[#  13]+
          +0.073*[#  16]+0.073*[#  19]+0.073*[#  22]+0.029*[#   2]+0.029*[#   3]+
          +0.029*[#   5]+0.029*[#   8]+0.029*[#   9]+0.029*[#  11]+0.029*[#  14]+
          +0.029*[#  15]+0.029*[#  17]+0.029*[#  20]+0.029*[#  21]+0.029*[#  23]+
          +0.010*[#  26]+0.010*[#  27]+0.010*[#  28]+0.010*[#  30]+0.010*[#  31]+
          +0.010*[#  32]+0.002*[#   6]+0.002*[#  12]+0.002*[#  18]+0.002*[#  24]+
    |psi|^2 = 0.998
==== e(  15) =     6.48547 eV ==== 
     psi = 0.121*[#   1]+0.121*[#   4]+0.121*[#   7]+0.121*[#  10]+0.121*[#  13]+
          +0.121*[#  16]+0.121*[#  19]+0.121*[#  22]+0.002*[#  26]+0.002*[#  27]+
          +0.002*[#  28]+0.002*[#  30]+0.002*[#  31]+0.002*[#  32]+0.001*[#   2]+
          +0.001*[#   3]+0.001*[#   5]+0.001*[#   8]+0.001*[#   9]+0.001*[#  11]+
          +0.001*[#  14]+0.001*[#  15]+0.001*[#  17]+0.001*[#  20]+0.001*[#  21]+
          +0.001*[#  23]+
    |psi|^2 = 0.999
==== e(  16) =     6.49228 eV ==== 
     psi = 0.058*[#   2]+0.058*[#   3]+0.058*[#   5]+0.058*[#   8]+0.058*[#   9]+
          +0.058*[#  11]+0.058*[#  14]+0.058*[#  15]+0.058*[#  17]+0.058*[#  20]+
          +0.058*[#  21]+0.058*[#  23]+0.037*[#   1]+0.037*[#   4]+0.037*[#   7]+
          +0.037*[#  10]+0.037*[#  13]+0.037*[#  16]+0.037*[#  19]+0.037*[#  22]+
    |psi|^2 = 0.987
==== e(  17) =     6.52088 eV ==== 
     psi = 0.083*[#   2]+0.083*[#   3]+0.083*[#   5]+0.083*[#   8]+0.083*[#   9]+
          +0.083*[#  11]+0.083*[#  14]+0.083*[#  15]+0.083*[#  17]+0.083*[#  20]+
          +0.083*[#  21]+0.083*[#  23]+
    |psi|^2 = 0.999
==== e(  18) =     6.55476 eV ==== 
     psi = 0.120*[#   1]+0.120*[#   4]+0.120*[#   7]+0.120*[#  10]+0.120*[#  13]+
          +0.120*[#  16]+0.120*[#  19]+0.120*[#  22]+0.003*[#   2]+0.003*[#   3]+
          +0.003*[#   5]+0.003*[#   8]+0.003*[#   9]+0.003*[#  11]+0.003*[#  14]+
          +0.003*[#  15]+0.003*[#  17]+0.003*[#  20]+0.003*[#  21]+0.003*[#  23]+
    |psi|^2 = 1.000
==== e(  19) =     6.62579 eV ==== 
     psi = 0.055*[#   1]+0.055*[#   4]+0.055*[#   7]+0.055*[#  10]+0.055*[#  13]+
          +0.055*[#  16]+0.055*[#  19]+0.055*[#  22]+0.046*[#   2]+0.046*[#   3]+
          +0.046*[#   5]+0.046*[#   8]+0.046*[#   9]+0.046*[#  11]+0.046*[#  14]+
          +0.046*[#  15]+0.046*[#  17]+0.046*[#  20]+0.046*[#  21]+0.046*[#  23]+
    |psi|^2 = 1.000
==== e(  20) =     6.62579 eV ==== 
     psi = 0.055*[#   1]+0.055*[#   4]+0.055*[#   7]+0.055*[#  10]+0.055*[#  13]+
          +0.055*[#  16]+0.055*[#  19]+0.055*[#  22]+0.046*[#   2]+0.046*[#   3]+
          +0.046*[#   5]+0.046*[#   8]+0.046*[#   9]+0.046*[#  11]+0.046*[#  14]+
          +0.046*[#  15]+0.046*[#  17]+0.046*[#  20]+0.046*[#  21]+0.046*[#  23]+
    |psi|^2 = 1.000
==== e(  21) =     6.79720 eV ==== 
     psi = 0.088*[#   1]+0.088*[#   4]+0.088*[#   7]+0.088*[#  10]+0.088*[#  13]+
          +0.088*[#  16]+0.088*[#  19]+0.088*[#  22]+0.024*[#   2]+0.024*[#   3]+
          +0.024*[#   5]+0.024*[#   8]+0.024*[#   9]+0.024*[#  11]+0.024*[#  14]+
          +0.024*[#  15]+0.024*[#  17]+0.024*[#  20]+0.024*[#  21]+0.024*[#  23]+
    |psi|^2 = 0.994
==== e(  22) =     6.88180 eV ==== 
     psi = 0.063*[#   1]+0.063*[#   4]+0.063*[#   7]+0.063*[#  10]+0.063*[#  13]+
          +0.063*[#  16]+0.063*[#  19]+0.063*[#  22]+0.033*[#   2]+0.033*[#   3]+
          +0.033*[#   5]+0.033*[#   8]+0.033*[#   9]+0.033*[#  11]+0.033*[#  14]+
          +0.033*[#  15]+0.033*[#  17]+0.033*[#  20]+0.033*[#  21]+0.033*[#  23]+
          +0.015*[#  26]+0.015*[#  27]+0.015*[#  28]+0.015*[#  30]+0.015*[#  31]+
          +0.015*[#  32]+
    |psi|^2 = 0.996
==== e(  23) =     6.88180 eV ==== 
     psi = 0.063*[#   1]+0.063*[#   4]+0.063*[#   7]+0.063*[#  10]+0.063*[#  13]+
          +0.063*[#  16]+0.063*[#  19]+0.063*[#  22]+0.033*[#   2]+0.033*[#   3]+
          +0.033*[#   5]+0.033*[#   8]+0.033*[#   9]+0.033*[#  11]+0.033*[#  14]+
          +0.033*[#  15]+0.033*[#  17]+0.033*[#  20]+0.033*[#  21]+0.033*[#  23]+
          +0.015*[#  26]+0.015*[#  27]+0.015*[#  28]+0.015*[#  30]+0.015*[#  31]+
          +0.015*[#  32]+
    |psi|^2 = 0.996
==== e(  24) =     6.93935 eV ==== 
     psi = 0.078*[#   2]+0.078*[#   3]+0.078*[#   5]+0.078*[#   8]+0.078*[#   9]+
          +0.078*[#  11]+0.078*[#  14]+0.078*[#  15]+0.078*[#  17]+0.078*[#  20]+
          +0.078*[#  21]+0.078*[#  23]+0.006*[#   1]+0.006*[#   4]+0.006*[#   7]+
          +0.006*[#  10]+0.006*[#  13]+0.006*[#  16]+0.006*[#  19]+0.006*[#  22]+
          +0.002*[#  26]+0.002*[#  27]+0.002*[#  28]+0.002*[#  30]+0.002*[#  31]+
          +0.002*[#  32]+
    |psi|^2 = 0.999
==== e(  25) =     6.93935 eV ==== 
     psi = 0.078*[#   2]+0.078*[#   3]+0.078*[#   5]+0.078*[#   8]+0.078*[#   9]+
          +0.078*[#  11]+0.078*[#  14]+0.078*[#  15]+0.078*[#  17]+0.078*[#  20]+
          +0.078*[#  21]+0.078*[#  23]+0.006*[#   1]+0.006*[#   4]+0.006*[#   7]+
          +0.006*[#  10]+0.006*[#  13]+0.006*[#  16]+0.006*[#  19]+0.006*[#  22]+
          +0.002*[#  26]+0.002*[#  27]+0.002*[#  28]+0.002*[#  30]+0.002*[#  31]+
          +0.002*[#  32]+
    |psi|^2 = 0.999
==== e(  26) =     7.20648 eV ==== 
     psi = 0.063*[#   6]+0.063*[#  12]+0.063*[#  18]+0.063*[#  24]+0.049*[#   1]+
          +0.049*[#   4]+0.049*[#   7]+0.049*[#  10]+0.049*[#  13]+0.049*[#  16]+
          +0.049*[#  19]+0.049*[#  22]+0.019*[#   2]+0.019*[#   3]+0.019*[#   5]+
          +0.019*[#   8]+0.019*[#   9]+0.019*[#  11]+0.019*[#  14]+0.019*[#  15]+
          +0.019*[#  17]+0.019*[#  20]+0.019*[#  21]+0.019*[#  23]+0.012*[#  26]+
          +0.012*[#  27]+0.012*[#  28]+0.012*[#  30]+0.012*[#  31]+0.012*[#  32]+
    |psi|^2 = 0.946
==== e(  27) =     8.27179 eV ==== 
     psi = 0.040*[#   2]+0.040*[#   3]+0.040*[#   5]+0.040*[#   8]+0.040*[#   9]+
          +0.040*[#  11]+0.040*[#  14]+0.040*[#  15]+0.040*[#  17]+0.040*[#  20]+
          +0.040*[#  21]+0.040*[#  23]+0.034*[#  26]+0.034*[#  27]+0.034*[#  28]+
          +0.034*[#  30]+0.034*[#  31]+0.034*[#  32]+0.026*[#   1]+0.026*[#   4]+
          +0.026*[#   7]+0.026*[#  10]+0.026*[#  13]+0.026*[#  16]+0.026*[#  19]+
          +0.026*[#  22]+0.023*[#   6]+0.023*[#  12]+0.023*[#  18]+0.023*[#  24]+
    |psi|^2 = 0.993
==== e(  28) =     8.27179 eV ==== 
     psi = 0.040*[#   2]+0.040*[#   3]+0.040*[#   5]+0.040*[#   8]+0.040*[#   9]+
          +0.040*[#  11]+0.040*[#  14]+0.040*[#  15]+0.040*[#  17]+0.040*[#  20]+
          +0.040*[#  21]+0.040*[#  23]+0.034*[#  26]+0.034*[#  27]+0.034*[#  28]+
          +0.034*[#  30]+0.034*[#  31]+0.034*[#  32]+0.026*[#   1]+0.026*[#   4]+
          +0.026*[#   7]+0.026*[#  10]+0.026*[#  13]+0.026*[#  16]+0.026*[#  19]+
          +0.026*[#  22]+0.023*[#   6]+0.023*[#  12]+0.023*[#  18]+0.023*[#  24]+
    |psi|^2 = 0.993
==== e(  29) =     9.37816 eV ==== 
     psi = 0.082*[#  25]+0.082*[#  29]+0.064*[#   6]+0.064*[#  12]+0.064*[#  18]+
          +0.064*[#  24]+0.038*[#   2]+0.038*[#   3]+0.038*[#   5]+0.038*[#   8]+
          +0.038*[#   9]+0.038*[#  11]+0.038*[#  14]+0.038*[#  15]+0.038*[#  17]+
          +0.038*[#  20]+0.038*[#  21]+0.038*[#  23]+0.017*[#  26]+0.017*[#  27]+
          +0.017*[#  28]+0.017*[#  30]+0.017*[#  31]+0.017*[#  32]+
    |psi|^2 = 0.981
==== e(  30) =    10.77787 eV ==== 
     psi = 0.001*[#   2]+0.001*[#   3]+0.001*[#   5]+0.001*[#   8]+0.001*[#   9]+
          +0.001*[#  11]+0.001*[#  14]+0.001*[#  15]+0.001*[#  17]+0.001*[#  20]+
          +0.001*[#  21]+0.001*[#  23]+
    |psi|^2 = 0.018
==== e(  31) =    11.04225 eV ==== 
     psi = 0.061*[#   6]+0.061*[#  12]+0.061*[#  18]+0.061*[#  24]+0.032*[#  26]+
          +0.032*[#  27]+0.032*[#  28]+0.032*[#  30]+0.032*[#  31]+0.032*[#  32]+
          +0.014*[#   2]+0.014*[#   3]+0.014*[#   5]+0.014*[#   8]+0.014*[#   9]+
          +0.014*[#  11]+0.014*[#  14]+0.014*[#  15]+0.014*[#  17]+0.014*[#  20]+
          +0.014*[#  21]+0.014*[#  23]+0.008*[#  25]+0.008*[#  29]+0.002*[#   1]+
          +0.002*[#   4]+0.002*[#   7]+0.002*[#  10]+0.002*[#  13]+0.002*[#  16]+
          +0.002*[#  19]+0.002*[#  22]+
    |psi|^2 = 0.631
==== e(  32) =    15.41164 eV ==== 
     psi = 
    |psi|^2 = 0.003

 k =   0.0000000000  0.0000000000 -0.5000000000
==== e(   1) =   -10.76808 eV ==== 
     psi = 0.858*[#  25]+0.026*[#   6]+0.026*[#  12]+0.026*[#  18]+0.026*[#  24]+
          +0.003*[#   2]+0.003*[#   3]+0.003*[#   5]+0.003*[#   8]+0.003*[#   9]+
          +0.003*[#  11]+0.003*[#  14]+0.003*[#  15]+0.003*[#  17]+0.003*[#  20]+
          +0.003*[#  21]+0.003*[#  23]+
    |psi|^2 = 0.998
==== e(   2) =   -10.76636 eV ==== 
     psi = 0.857*[#  29]+0.026*[#   6]+0.026*[#  12]+0.026*[#  18]+0.026*[#  24]+
          +0.003*[#   2]+0.003*[#   3]+0.003*[#   5]+0.003*[#   8]+0.003*[#   9]+
          +0.003*[#  11]+0.003*[#  14]+0.003*[#  15]+0.003*[#  17]+0.003*[#  20]+
          +0.003*[#  21]+0.003*[#  23]+
    |psi|^2 = 0.998
==== e(   3) =     2.34190 eV ==== 
     psi = 0.116*[#  26]+0.116*[#  27]+0.116*[#  28]+0.116*[#  30]+0.116*[#  31]+
          +0.116*[#  32]+0.020*[#   2]+0.020*[#   3]+0.020*[#   5]+0.020*[#   8]+
          +0.020*[#   9]+0.020*[#  11]+0.020*[#  14]+0.020*[#  15]+0.020*[#  17]+
          +0.020*[#  20]+0.020*[#  21]+0.020*[#  23]+0.011*[#   6]+0.011*[#  12]+
          +0.011*[#  18]+0.011*[#  24]+0.003*[#   1]+0.003*[#   4]+0.003*[#   7]+
          +0.003*[#  10]+0.003*[#  13]+0.003*[#  16]+0.003*[#  19]+0.003*[#  22]+
    |psi|^2 = 0.998
==== e(   4) =     2.34190 eV ==== 
     psi = 0.116*[#  26]+0.116*[#  27]+0.116*[#  28]+0.116*[#  30]+0.116*[#  31]+
          +0.116*[#  32]+0.020*[#   2]+0.020*[#   3]+0.020*[#   5]+0.020*[#   8]+
          +0.020*[#   9]+0.020*[#  11]+0.020*[#  14]+0.020*[#  15]+0.020*[#  17]+
          +0.020*[#  20]+0.020*[#  21]+0.020*[#  23]+0.011*[#   6]+0.011*[#  12]+
          +0.011*[#  18]+0.011*[#  24]+0.003*[#   1]+0.003*[#   4]+0.003*[#   7]+
          +0.003*[#  10]+0.003*[#  13]+0.003*[#  16]+0.003*[#  19]+0.003*[#  22]+
    |psi|^2 = 0.998
==== e(   5) =     2.39914 eV ==== 
     psi = 0.232*[#  26]+0.232*[#  27]+0.232*[#  28]+0.034*[#   6]+0.034*[#  12]+
          +0.034*[#  18]+0.034*[#  24]+0.026*[#  29]+0.008*[#   1]+0.008*[#   4]+
          +0.008*[#   7]+0.008*[#  10]+0.008*[#  13]+0.008*[#  16]+0.008*[#  19]+
          +0.008*[#  22]+0.006*[#   2]+0.006*[#   3]+0.006*[#   5]+0.006*[#   8]+
          +0.006*[#   9]+0.006*[#  11]+0.006*[#  14]+0.006*[#  15]+0.006*[#  17]+
          +0.006*[#  20]+0.006*[#  21]+0.006*[#  23]+
    |psi|^2 = 0.988
==== e(   6) =     2.39918 eV ==== 
     psi = 0.232*[#  30]+0.232*[#  31]+0.232*[#  32]+0.034*[#   6]+0.034*[#  12]+
          +0.034*[#  18]+0.034*[#  24]+0.026*[#  25]+0.008*[#   1]+0.008*[#   4]+
          +0.008*[#   7]+0.008*[#  10]+0.008*[#  13]+0.008*[#  16]+0.008*[#  19]+
          +0.008*[#  22]+0.006*[#   2]+0.006*[#   3]+0.006*[#   5]+0.006*[#   8]+
          +0.006*[#   9]+0.006*[#  11]+0.006*[#  14]+0.006*[#  15]+0.006*[#  17]+
          +0.006*[#  20]+0.006*[#  21]+0.006*[#  23]+
    |psi|^2 = 0.988
==== e(   7) =     3.01335 eV ==== 
     psi = 0.122*[#  26]+0.122*[#  27]+0.122*[#  28]+0.122*[#  30]+0.122*[#  31]+
          +0.122*[#  32]+0.027*[#   1]+0.027*[#   4]+0.027*[#   7]+0.027*[#  10]+
          +0.027*[#  13]+0.027*[#  16]+0.027*[#  19]+0.027*[#  22]+0.003*[#   2]+
          +0.003*[#   3]+0.003*[#   5]+0.003*[#   8]+0.003*[#   9]+0.003*[#  11]+
          +0.003*[#  14]+0.003*[#  15]+0.003*[#  17]+0.003*[#  20]+0.003*[#  21]+
          +0.003*[#  23]+
    |psi|^2 = 0.991
==== e(   8) =     3.01335 eV ==== 
     psi = 0.122*[#  26]+0.122*[#  27]+0.122*[#  28]+0.122*[#  30]+0.122*[#  31]+
          +0.122*[#  32]+0.027*[#   1]+0.027*[#   4]+0.027*[#   7]+0.027*[#  10]+
          +0.027*[#  13]+0.027*[#  16]+0.027*[#  19]+0.027*[#  22]+0.003*[#   2]+
          +0.003*[#   3]+0.003*[#   5]+0.003*[#   8]+0.003*[#   9]+0.003*[#  11]+
          +0.003*[#  14]+0.003*[#  15]+0.003*[#  17]+0.003*[#  20]+0.003*[#  21]+
          +0.003*[#  23]+
    |psi|^2 = 0.991
==== e(   9) =     5.32020 eV ==== 
     psi = 0.080*[#   6]+0.080*[#  12]+0.080*[#  18]+0.080*[#  24]+0.052*[#   2]+
          +0.052*[#   3]+0.052*[#   5]+0.052*[#   8]+0.052*[#   9]+0.052*[#  11]+
          +0.052*[#  14]+0.052*[#  15]+0.052*[#  17]+0.052*[#  20]+0.052*[#  21]+
          +0.052*[#  23]+0.005*[#  30]+0.005*[#  31]+0.005*[#  32]+0.004*[#   1]+
          +0.004*[#   4]+0.004*[#   7]+0.004*[#  10]+0.004*[#  13]+0.004*[#  16]+
          +0.004*[#  19]+0.004*[#  22]+0.002*[#  25]+
    |psi|^2 = 0.995
==== e(  10) =     5.32020 eV ==== 
     psi = 0.080*[#   6]+0.080*[#  12]+0.080*[#  18]+0.080*[#  24]+0.052*[#   2]+
          +0.052*[#   3]+0.052*[#   5]+0.052*[#   8]+0.052*[#   9]+0.052*[#  11]+
          +0.052*[#  14]+0.052*[#  15]+0.052*[#  17]+0.052*[#  20]+0.052*[#  21]+
          +0.052*[#  23]+0.005*[#  26]+0.005*[#  27]+0.005*[#  28]+0.004*[#   1]+
          +0.004*[#   4]+0.004*[#   7]+0.004*[#  10]+0.004*[#  13]+0.004*[#  16]+
          +0.004*[#  19]+0.004*[#  22]+0.002*[#  29]+
    |psi|^2 = 0.995
==== e(  11) =     6.03825 eV ==== 
     psi = 0.077*[#   2]+0.077*[#   3]+0.077*[#   5]+0.077*[#   8]+0.077*[#   9]+
          +0.077*[#  11]+0.077*[#  14]+0.077*[#  15]+0.077*[#  17]+0.077*[#  20]+
          +0.077*[#  21]+0.077*[#  23]+0.008*[#   1]+0.008*[#   4]+0.008*[#   7]+
          +0.008*[#  10]+0.008*[#  13]+0.008*[#  16]+0.008*[#  19]+0.008*[#  22]+
    |psi|^2 = 0.989
==== e(  12) =     6.03826 eV ==== 
     psi = 0.077*[#   2]+0.077*[#   3]+0.077*[#   5]+0.077*[#   8]+0.077*[#   9]+
          +0.077*[#  11]+0.077*[#  14]+0.077*[#  15]+0.077*[#  17]+0.077*[#  20]+
          +0.077*[#  21]+0.077*[#  23]+0.008*[#   1]+0.008*[#   4]+0.008*[#   7]+
          +0.008*[#  10]+0.008*[#  13]+0.008*[#  16]+0.008*[#  19]+0.008*[#  22]+
    |psi|^2 = 0.989
==== e(  13) =     6.25267 eV ==== 
     psi = 0.078*[#   2]+0.078*[#   3]+0.078*[#   5]+0.078*[#   8]+0.078*[#   9]+
          +0.078*[#  11]+0.078*[#  14]+0.078*[#  15]+0.078*[#  17]+0.078*[#  20]+
          +0.078*[#  21]+0.078*[#  23]+0.005*[#  30]+0.005*[#  31]+0.005*[#  32]+
          +0.005*[#   1]+0.005*[#   4]+0.005*[#   7]+0.005*[#  10]+0.005*[#  13]+
          +0.005*[#  16]+0.005*[#  19]+0.005*[#  22]+0.003*[#  25]+
    |psi|^2 = 0.999
==== e(  14) =     6.25267 eV ==== 
     psi = 0.078*[#   2]+0.078*[#   3]+0.078*[#   5]+0.078*[#   8]+0.078*[#   9]+
          +0.078*[#  11]+0.078*[#  14]+0.078*[#  15]+0.078*[#  17]+0.078*[#  20]+
          +0.078*[#  21]+0.078*[#  23]+0.005*[#  26]+0.005*[#  27]+0.005*[#  28]+
          +0.005*[#   1]+0.005*[#   4]+0.005*[#   7]+0.005*[#  10]+0.005*[#  13]+
          +0.005*[#  16]+0.005*[#  19]+0.005*[#  22]+0.003*[#  29]+
    |psi|^2 = 0.999
==== e(  15) =     6.45473 eV ==== 
     psi = 0.050*[#   2]+0.050*[#   3]+0.050*[#   5]+0.050*[#   8]+0.050*[#   9]+
          +0.050*[#  11]+0.050*[#  14]+0.050*[#  15]+0.050*[#  17]+0.050*[#  20]+
          +0.050*[#  21]+0.050*[#  23]+0.047*[#   1]+0.047*[#   4]+0.047*[#   7]+
          +0.047*[#  10]+0.047*[#  13]+0.047*[#  16]+0.047*[#  19]+0.047*[#  22]+
          +0.004*[#  26]+0.004*[#  27]+0.004*[#  28]+0.004*[#  30]+0.004*[#  31]+
          +0.004*[#  32]+
    |psi|^2 = 0.999
==== e(  16) =     6.45473 eV ==== 
     psi = 0.050*[#   2]+0.050*[#   3]+0.050*[#   5]+0.050*[#   8]+0.050*[#   9]+
          +0.050*[#  11]+0.050*[#  14]+0.050*[#  15]+0.050*[#  17]+0.050*[#  20]+
          +0.050*[#  21]+0.050*[#  23]+0.047*[#   1]+0.047*[#   4]+0.047*[#   7]+
          +0.047*[#  10]+0.047*[#  13]+0.047*[#  16]+0.047*[#  19]+0.047*[#  22]+
          +0.004*[#  26]+0.004*[#  27]+0.004*[#  28]+0.004*[#  30]+0.004*[#  31]+
          +0.004*[#  32]+
    |psi|^2 = 0.999
==== e(  17) =     6.46825 eV ==== 
     psi = 0.101*[#   1]+0.101*[#   4]+0.101*[#   7]+0.101*[#  10]+0.101*[#  13]+
          +0.101*[#  16]+0.101*[#  19]+0.101*[#  22]+0.016*[#   2]+0.016*[#   3]+
          +0.016*[#   5]+0.016*[#   8]+0.016*[#   9]+0.016*[#  11]+0.016*[#  14]+
          +0.016*[#  15]+0.016*[#  17]+0.016*[#  20]+0.016*[#  21]+0.016*[#  23]+
          +0.001*[#   6]+0.001*[#  12]+0.001*[#  18]+0.001*[#  24]+
    |psi|^2 = 1.000
==== e(  18) =     6.46825 eV ==== 
     psi = 0.101*[#   1]+0.101*[#   4]+0.101*[#   7]+0.101*[#  10]+0.101*[#  13]+
          +0.101*[#  16]+0.101*[#  19]+0.101*[#  22]+0.016*[#   2]+0.016*[#   3]+
          +0.016*[#   5]+0.016*[#   8]+0.016*[#   9]+0.016*[#  11]+0.016*[#  14]+
          +0.016*[#  15]+0.016*[#  17]+0.016*[#  20]+0.016*[#  21]+0.016*[#  23]+
          +0.001*[#   6]+0.001*[#  12]+0.001*[#  18]+0.001*[#  24]+
    |psi|^2 = 1.000
==== e(  19) =     6.48709 eV ==== 
     psi = 0.108*[#   1]+0.108*[#   4]+0.108*[#   7]+0.108*[#  10]+0.108*[#  13]+
          +0.108*[#  16]+0.108*[#  19]+0.108*[#  22]+0.015*[#   6]+0.015*[#  12]+
          +0.015*[#  18]+0.015*[#  24]+0.011*[#  30]+0.011*[#  31]+0.011*[#  32]+
          +0.005*[#  25]+0.003*[#   2]+0.003*[#   3]+0.003*[#   5]+0.003*[#   8]+
          +0.003*[#   9]+0.003*[#  11]+0.003*[#  14]+0.003*[#  15]+0.003*[#  17]+
          +0.003*[#  20]+0.003*[#  21]+0.003*[#  23]+
    |psi|^2 = 0.992
==== e(  20) =     6.48709 eV ==== 
     psi = 0.108*[#   1]+0.108*[#   4]+0.108*[#   7]+0.108*[#  10]+0.108*[#  13]+
          +0.108*[#  16]+0.108*[#  19]+0.108*[#  22]+0.015*[#   6]+0.015*[#  12]+
          +0.015*[#  18]+0.015*[#  24]+0.011*[#  26]+0.011*[#  27]+0.011*[#  28]+
          +0.005*[#  29]+0.003*[#   2]+0.003*[#   3]+0.003*[#   5]+0.003*[#   8]+
          +0.003*[#   9]+0.003*[#  11]+0.003*[#  14]+0.003*[#  15]+0.003*[#  17]+
          +0.003*[#  20]+0.003*[#  21]+0.003*[#  23]+
    |psi|^2 = 0.992
==== e(  21) =     6.65425 eV ==== 
     psi = 0.117*[#   1]+0.117*[#   4]+0.117*[#   7]+0.117*[#  10]+0.117*[#  13]+
          +0.117*[#  16]+0.117*[#  19]+0.117*[#  22]+0.005*[#   2]+0.005*[#   3]+
          +0.005*[#   5]+0.005*[#   8]+0.005*[#   9]+0.005*[#  11]+0.005*[#  14]+
          +0.005*[#  15]+0.005*[#  17]+0.005*[#  20]+0.005*[#  21]+0.005*[#  23]+
    |psi|^2 = 0.999
==== e(  22) =     6.65426 eV ==== 
     psi = 0.117*[#   1]+0.117*[#   4]+0.117*[#   7]+0.117*[#  10]+0.117*[#  13]+
          +0.117*[#  16]+0.117*[#  19]+0.117*[#  22]+0.005*[#   2]+0.005*[#   3]+
          +0.005*[#   5]+0.005*[#   8]+0.005*[#   9]+0.005*[#  11]+0.005*[#  14]+
          +0.005*[#  15]+0.005*[#  17]+0.005*[#  20]+0.005*[#  21]+0.005*[#  23]+
    |psi|^2 = 0.999
==== e(  23) =     6.86467 eV ==== 
     psi = 0.079*[#   2]+0.079*[#   3]+0.079*[#   5]+0.079*[#   8]+0.079*[#   9]+
          +0.079*[#  11]+0.079*[#  14]+0.079*[#  15]+0.079*[#  17]+0.079*[#  20]+
          +0.079*[#  21]+0.079*[#  23]+0.006*[#   1]+0.006*[#   4]+0.006*[#   7]+
          +0.006*[#  10]+0.006*[#  13]+0.006*[#  16]+0.006*[#  19]+0.006*[#  22]+
    |psi|^2 = 1.000
==== e(  24) =     6.86467 eV ==== 
     psi = 0.079*[#   2]+0.079*[#   3]+0.079*[#   5]+0.079*[#   8]+0.079*[#   9]+
          +0.079*[#  11]+0.079*[#  14]+0.079*[#  15]+0.079*[#  17]+0.079*[#  20]+
          +0.079*[#  21]+0.079*[#  23]+0.006*[#   1]+0.006*[#   4]+0.006*[#   7]+
          +0.006*[#  10]+0.006*[#  13]+0.006*[#  16]+0.006*[#  19]+0.006*[#  22]+
    |psi|^2 = 1.000
==== e(  25) =     7.24145 eV ==== 
     psi = 0.051*[#   1]+0.051*[#   4]+0.051*[#   7]+0.051*[#  10]+0.051*[#  13]+
          +0.051*[#  16]+0.051*[#  19]+0.051*[#  22]+0.038*[#  26]+0.038*[#  27]+
          +0.038*[#  28]+0.038*[#  30]+0.038*[#  31]+0.038*[#  32]+0.030*[#   2]+
          +0.030*[#   3]+0.030*[#   5]+0.030*[#   8]+0.030*[#   9]+0.030*[#  11]+
          +0.030*[#  14]+0.030*[#  15]+0.030*[#  17]+0.030*[#  20]+0.030*[#  21]+
          +0.030*[#  23]+
    |psi|^2 = 0.989
==== e(  26) =     7.24145 eV ==== 
     psi = 0.051*[#   1]+0.051*[#   4]+0.051*[#   7]+0.051*[#  10]+0.051*[#  13]+
          +0.051*[#  16]+0.051*[#  19]+0.051*[#  22]+0.038*[#  26]+0.038*[#  27]+
          +0.038*[#  28]+0.038*[#  30]+0.038*[#  31]+0.038*[#  32]+0.030*[#   2]+
          +0.030*[#   3]+0.030*[#   5]+0.030*[#   8]+0.030*[#   9]+0.030*[#  11]+
          +0.030*[#  14]+0.030*[#  15]+0.030*[#  17]+0.030*[#  20]+0.030*[#  21]+
          +0.030*[#  23]+
    |psi|^2 = 0.989
==== e(  27) =     8.05658 eV ==== 
     psi = 0.050*[#   2]+0.050*[#   3]+0.050*[#   5]+0.050*[#   8]+0.050*[#   9]+
          +0.050*[#  11]+0.050*[#  14]+0.050*[#  15]+0.050*[#  17]+0.050*[#  20]+
          +0.050*[#  21]+0.050*[#  23]+0.032*[#  26]+0.032*[#  27]+0.032*[#  28]+
          +0.032*[#  30]+0.032*[#  31]+0.032*[#  32]+0.020*[#   6]+0.020*[#  12]+
          +0.020*[#  18]+0.020*[#  24]+0.015*[#   1]+0.015*[#   4]+0.015*[#   7]+
          +0.015*[#  10]+0.015*[#  13]+0.015*[#  16]+0.015*[#  19]+0.015*[#  22]+
    |psi|^2 = 0.996
==== e(  28) =     8.05658 eV ==== 
     psi = 0.050*[#   2]+0.050*[#   3]+0.050*[#   5]+0.050*[#   8]+0.050*[#   9]+
          +0.050*[#  11]+0.050*[#  14]+0.050*[#  15]+0.050*[#  17]+0.050*[#  20]+
          +0.050*[#  21]+0.050*[#  23]+0.032*[#  26]+0.032*[#  27]+0.032*[#  28]+
          +0.032*[#  30]+0.032*[#  31]+0.032*[#  32]+0.020*[#   6]+0.020*[#  12]+
          +0.020*[#  18]+0.020*[#  24]+0.015*[#   1]+0.015*[#   4]+0.015*[#   7]+
          +0.015*[#  10]+0.015*[#  13]+0.015*[#  16]+0.015*[#  19]+0.015*[#  22]+
    |psi|^2 = 0.996
==== e(  29) =    10.59622 eV ==== 
     psi = 0.094*[#  25]+0.086*[#   6]+0.086*[#  12]+0.086*[#  18]+0.086*[#  24]+
          +0.076*[#  30]+0.076*[#  31]+0.076*[#  32]+0.024*[#   2]+0.024*[#   3]+
          +0.024*[#   5]+0.024*[#   8]+0.024*[#   9]+0.024*[#  11]+0.024*[#  14]+
          +0.024*[#  15]+0.024*[#  17]+0.024*[#  20]+0.024*[#  21]+0.024*[#  23]+
    |psi|^2 = 0.961
==== e(  30) =    10.59647 eV ==== 
     psi = 0.094*[#  29]+0.086*[#   6]+0.086*[#  12]+0.086*[#  18]+0.086*[#  24]+
          +0.076*[#  26]+0.076*[#  27]+0.076*[#  28]+0.024*[#   2]+0.024*[#   3]+
          +0.024*[#   5]+0.024*[#   8]+0.024*[#   9]+0.024*[#  11]+0.024*[#  14]+
          +0.024*[#  15]+0.024*[#  17]+0.024*[#  20]+0.024*[#  21]+0.024*[#  23]+
    |psi|^2 = 0.961
==== e(  31) =    12.74759 eV ==== 
     psi = 
    |psi|^2 = 0.011
==== e(  32) =    12.74760 eV ==== 
     psi = 
    |psi|^2 = 0.011

 k =   0.0000000000  0.2500000000  0.2500000000
==== e(   1) =   -10.92450 eV ==== 
     psi = 0.403*[#  25]+0.399*[#  29]+0.037*[#   6]+0.037*[#  12]+0.037*[#  18]+
          +0.037*[#  24]+0.004*[#   2]+0.004*[#   3]+0.004*[#   5]+0.004*[#   8]+
          +0.004*[#   9]+0.004*[#  11]+0.004*[#  14]+0.004*[#  15]+0.004*[#  17]+
          +0.004*[#  20]+0.004*[#  21]+0.004*[#  23]+
    |psi|^2 = 0.998
==== e(   2) =   -10.60275 eV ==== 
     psi = 0.465*[#  29]+0.461*[#  25]+0.013*[#   6]+0.013*[#  12]+0.013*[#  18]+
          +0.013*[#  24]+0.002*[#   2]+0.002*[#   3]+0.002*[#   5]+0.002*[#   8]+
          +0.002*[#   9]+0.002*[#  11]+0.002*[#  14]+0.002*[#  15]+0.002*[#  17]+
          +0.002*[#  20]+0.002*[#  21]+0.002*[#  23]+
    |psi|^2 = 0.998
==== e(   3) =     1.72362 eV ==== 
     psi = 0.111*[#  26]+0.111*[#  27]+0.111*[#  28]+0.111*[#  30]+0.111*[#  31]+
          +0.111*[#  32]+0.029*[#   6]+0.029*[#  12]+0.029*[#  18]+0.029*[#  24]+
          +0.012*[#   2]+0.012*[#   3]+0.012*[#   5]+0.012*[#   8]+0.012*[#   9]+
          +0.012*[#  11]+0.012*[#  14]+0.012*[#  15]+0.012*[#  17]+0.012*[#  20]+
          +0.012*[#  21]+0.012*[#  23]+0.010*[#   1]+0.010*[#   4]+0.010*[#   7]+
          +0.010*[#  10]+0.010*[#  13]+0.010*[#  16]+0.010*[#  19]+0.010*[#  22]+
    |psi|^2 = 0.997
==== e(   4) =     2.07792 eV ==== 
     psi = 0.111*[#  26]+0.111*[#  27]+0.111*[#  28]+0.111*[#  30]+0.111*[#  31]+
          +0.111*[#  32]+0.019*[#   6]+0.019*[#  12]+0.019*[#  18]+0.019*[#  24]+
          +0.016*[#   2]+0.016*[#   3]+0.016*[#   5]+0.016*[#   8]+0.016*[#   9]+
          +0.016*[#  11]+0.016*[#  14]+0.016*[#  15]+0.016*[#  17]+0.016*[#  20]+
          +0.016*[#  21]+0.016*[#  23]+0.007*[#   1]+0.007*[#   4]+0.007*[#   7]+
          +0.007*[#  10]+0.007*[#  13]+0.007*[#  16]+0.007*[#  19]+0.007*[#  22]+
    |psi|^2 = 0.998
==== e(   5) =     2.42348 eV ==== 
     psi = 0.116*[#  26]+0.116*[#  27]+0.116*[#  28]+0.116*[#  30]+0.116*[#  31]+
          +0.116*[#  32]+0.014*[#   2]+0.014*[#   3]+0.014*[#   5]+0.014*[#   8]+
          +0.014*[#   9]+0.014*[#  11]+0.014*[#  14]+0.014*[#  15]+0.014*[#  17]+
          +0.014*[#  20]+0.014*[#  21]+0.014*[#  23]+0.011*[#   1]+0.011*[#   4]+
          +0.011*[#   7]+0.011*[#  10]+0.011*[#  13]+0.011*[#  16]+0.011*[#  19]+
          +0.011*[#  22]+0.009*[#   6]+0.009*[#  12]+0.009*[#  18]+0.009*[#  24]+
          +0.005*[#  25]+0.005*[#  29]+
    |psi|^2 = 0.993
==== e(   6) =     2.68115 eV ==== 
     psi = 0.119*[#  26]+0.119*[#  27]+0.119*[#  28]+0.119*[#  30]+0.119*[#  31]+
          +0.119*[#  32]+0.031*[#   6]+0.031*[#  12]+0.031*[#  18]+0.031*[#  24]+
          +0.012*[#   1]+0.012*[#   4]+0.012*[#   7]+0.012*[#  10]+0.012*[#  13]+
          +0.012*[#  16]+0.012*[#  19]+0.012*[#  22]+0.012*[#  25]+0.012*[#  29]+
          +0.003*[#   2]+0.003*[#   3]+0.003*[#   5]+0.003*[#   8]+0.003*[#   9]+
          +0.003*[#  11]+0.003*[#  14]+0.003*[#  15]+0.003*[#  17]+0.003*[#  20]+
          +0.003*[#  21]+0.003*[#  23]+
    |psi|^2 = 0.986
==== e(   7) =     3.33377 eV ==== 
     psi = 0.131*[#  26]+0.131*[#  27]+0.131*[#  28]+0.131*[#  30]+0.131*[#  31]+
          +0.131*[#  32]+0.016*[#   1]+0.016*[#   4]+0.016*[#   7]+0.016*[#  10]+
          +0.016*[#  13]+0.016*[#  16]+0.016*[#  19]+0.016*[#  22]+0.007*[#   2]+
          +0.007*[#   3]+0.007*[#   5]+0.007*[#   8]+0.007*[#   9]+0.007*[#  11]+
          +0.007*[#  14]+0.007*[#  15]+0.007*[#  17]+0.007*[#  20]+0.007*[#  21]+
          +0.007*[#  23]+
    |psi|^2 = 0.990
==== e(   8) =     3.65134 eV ==== 
     psi = 0.137*[#  26]+0.137*[#  27]+0.137*[#  28]+0.137*[#  30]+0.137*[#  31]+
          +0.137*[#  32]+0.009*[#   1]+0.009*[#   4]+0.009*[#   7]+0.009*[#  10]+
          +0.009*[#  13]+0.009*[#  16]+0.009*[#  19]+0.009*[#  22]+0.008*[#   2]+
          +0.008*[#   3]+0.008*[#   5]+0.008*[#   8]+0.008*[#   9]+0.008*[#  11]+
          +0.008*[#  14]+0.008*[#  15]+0.008*[#  17]+0.008*[#  20]+0.008*[#  21]+
          +0.008*[#  23]+
    |psi|^2 = 0.990
==== e(   9) =     4.82817 eV ==== 
     psi = 0.096*[#   6]+0.096*[#  12]+0.096*[#  18]+0.096*[#  24]+0.045*[#   2]+
          +0.045*[#   3]+0.045*[#   5]+0.045*[#   8]+0.045*[#   9]+0.045*[#  11]+
          +0.045*[#  14]+0.045*[#  15]+0.045*[#  17]+0.045*[#  20]+0.045*[#  21]+
          +0.045*[#  23]+0.007*[#  26]+0.007*[#  27]+0.007*[#  28]+0.007*[#  30]+
          +0.007*[#  31]+0.007*[#  32]+0.006*[#  25]+0.006*[#  29]+0.002*[#   1]+
          +0.002*[#   4]+0.002*[#   7]+0.002*[#  10]+0.002*[#  13]+0.002*[#  16]+
          +0.002*[#  19]+0.002*[#  22]+
    |psi|^2 = 0.997
==== e(  10) =     5.78413 eV ==== 
     psi = 0.075*[#   2]+0.075*[#   3]+0.075*[#   5]+0.075*[#   8]+0.075*[#   9]+
          +0.075*[#  11]+0.075*[#  14]+0.075*[#  15]+0.075*[#  17]+0.075*[#  20]+
          +0.075*[#  21]+0.075*[#  23]+0.011*[#   1]+0.011*[#   4]+0.011*[#   7]+
          +0.011*[#  10]+0.011*[#  13]+0.011*[#  16]+0.011*[#  19]+0.011*[#  22]+
          +0.001*[#   6]+0.001*[#  12]+0.001*[#  18]+0.001*[#  24]+
    |psi|^2 = 0.997
==== e(  11) =     5.82369 eV ==== 
     psi = 0.058*[#   1]+0.058*[#   4]+0.058*[#   7]+0.058*[#  10]+0.058*[#  13]+
          +0.058*[#  16]+0.058*[#  19]+0.058*[#  22]+0.039*[#   2]+0.039*[#   3]+
          +0.039*[#   5]+0.039*[#   8]+0.039*[#   9]+0.039*[#  11]+0.039*[#  14]+
          +0.039*[#  15]+0.039*[#  17]+0.039*[#  20]+0.039*[#  21]+0.039*[#  23]+
          +0.013*[#   6]+0.013*[#  12]+0.013*[#  18]+0.013*[#  24]+
    |psi|^2 = 0.993
==== e(  12) =     6.03117 eV ==== 
     psi = 0.071*[#   2]+0.071*[#   3]+0.071*[#   5]+0.071*[#   8]+0.071*[#   9]+
          +0.071*[#  11]+0.071*[#  14]+0.071*[#  15]+0.071*[#  17]+0.071*[#  20]+
          +0.071*[#  21]+0.071*[#  23]+0.013*[#   1]+0.013*[#   4]+0.013*[#   7]+
          +0.013*[#  10]+0.013*[#  13]+0.013*[#  16]+0.013*[#  19]+0.013*[#  22]+
          +0.007*[#  26]+0.007*[#  27]+0.007*[#  28]+0.007*[#  30]+0.007*[#  31]+
          +0.007*[#  32]+
    |psi|^2 = 0.999
==== e(  13) =     6.05477 eV ==== 
     psi = 0.049*[#   2]+0.049*[#   3]+0.049*[#   5]+0.049*[#   8]+0.049*[#   9]+
          +0.049*[#  11]+0.049*[#  14]+0.049*[#  15]+0.049*[#  17]+0.049*[#  20]+
          +0.049*[#  21]+0.049*[#  23]+0.043*[#   1]+0.043*[#   4]+0.043*[#   7]+
          +0.043*[#  10]+0.043*[#  13]+0.043*[#  16]+0.043*[#  19]+0.043*[#  22]+
          +0.013*[#   6]+0.013*[#  12]+0.013*[#  18]+0.013*[#  24]+0.003*[#  26]+
          +0.003*[#  27]+0.003*[#  28]+0.003*[#  30]+0.003*[#  31]+0.003*[#  32]+
    |psi|^2 = 0.996
==== e(  14) =     6.25895 eV ==== 
     psi = 0.072*[#   1]+0.072*[#   4]+0.072*[#   7]+0.072*[#  10]+0.072*[#  13]+
          +0.072*[#  16]+0.072*[#  19]+0.072*[#  22]+0.031*[#   2]+0.031*[#   3]+
          +0.031*[#   5]+0.031*[#   8]+0.031*[#   9]+0.031*[#  11]+0.031*[#  14]+
          +0.031*[#  15]+0.031*[#  17]+0.031*[#  20]+0.031*[#  21]+0.031*[#  23]+
          +0.006*[#  26]+0.006*[#  27]+0.006*[#  28]+0.006*[#  30]+0.006*[#  31]+
          +0.006*[#  32]+0.002*[#  25]+0.002*[#  29]+0.001*[#   6]+0.001*[#  12]+
          +0.001*[#  18]+0.001*[#  24]+
    |psi|^2 = 0.997
==== e(  15) =     6.42187 eV ==== 
     psi = 0.067*[#   2]+0.067*[#   3]+0.067*[#   5]+0.067*[#   8]+0.067*[#   9]+
          +0.067*[#  11]+0.067*[#  14]+0.067*[#  15]+0.067*[#  17]+0.067*[#  20]+
          +0.067*[#  21]+0.067*[#  23]+0.021*[#   1]+0.021*[#   4]+0.021*[#   7]+
          +0.021*[#  10]+0.021*[#  13]+0.021*[#  16]+0.021*[#  19]+0.021*[#  22]+
          +0.002*[#  26]+0.002*[#  27]+0.002*[#  28]+0.002*[#  30]+0.002*[#  31]+
          +0.002*[#  32]+
    |psi|^2 = 0.989
==== e(  16) =     6.43915 eV ==== 
     psi = 0.063*[#   2]+0.063*[#   3]+0.063*[#   5]+0.063*[#   8]+0.063*[#   9]+
          +0.063*[#  11]+0.063*[#  14]+0.063*[#  15]+0.063*[#  17]+0.063*[#  20]+
          +0.063*[#  21]+0.063*[#  23]+0.024*[#   1]+0.024*[#   4]+0.024*[#   7]+
          +0.024*[#  10]+0.024*[#  13]+0.024*[#  16]+0.024*[#  19]+0.024*[#  22]+
          +0.012*[#   6]+0.012*[#  12]+0.012*[#  18]+0.012*[#  24]+
    |psi|^2 = 0.992
==== e(  17) =     6.44533 eV ==== 
     psi = 0.115*[#   1]+0.115*[#   4]+0.115*[#   7]+0.115*[#  10]+0.115*[#  13]+
          +0.115*[#  16]+0.115*[#  19]+0.115*[#  22]+0.007*[#   2]+0.007*[#   3]+
          +0.007*[#   5]+0.007*[#   8]+0.007*[#   9]+0.007*[#  11]+0.007*[#  14]+
          +0.007*[#  15]+0.007*[#  17]+0.007*[#  20]+0.007*[#  21]+0.007*[#  23]+
    |psi|^2 = 1.000
==== e(  18) =     6.52369 eV ==== 
     psi = 0.106*[#   1]+0.106*[#   4]+0.106*[#   7]+0.106*[#  10]+0.106*[#  13]+
          +0.106*[#  16]+0.106*[#  19]+0.106*[#  22]+0.012*[#   2]+0.012*[#   3]+
          +0.012*[#   5]+0.012*[#   8]+0.012*[#   9]+0.012*[#  11]+0.012*[#  14]+
          +0.012*[#  15]+0.012*[#  17]+0.012*[#  20]+0.012*[#  21]+0.012*[#  23]+
          +0.001*[#  26]+0.001*[#  27]+0.001*[#  28]+0.001*[#  30]+0.001*[#  31]+
          +0.001*[#  32]+
    |psi|^2 = 0.999
==== e(  19) =     6.54030 eV ==== 
     psi = 0.069*[#   1]+0.069*[#   4]+0.069*[#   7]+0.069*[#  10]+0.069*[#  13]+
          +0.069*[#  16]+0.069*[#  19]+0.069*[#  22]+0.036*[#   2]+0.036*[#   3]+
          +0.036*[#   5]+0.036*[#   8]+0.036*[#   9]+0.036*[#  11]+0.036*[#  14]+
          +0.036*[#  15]+0.036*[#  17]+0.036*[#  20]+0.036*[#  21]+0.036*[#  23]+
          +0.002*[#   6]+0.002*[#  12]+0.002*[#  18]+0.002*[#  24]+
    |psi|^2 = 0.998
==== e(  20) =     6.71511 eV ==== 
     psi = 0.059*[#   1]+0.059*[#   4]+0.059*[#   7]+0.059*[#  10]+0.059*[#  13]+
          +0.059*[#  16]+0.059*[#  19]+0.059*[#  22]+0.042*[#   2]+0.042*[#   3]+
          +0.042*[#   5]+0.042*[#   8]+0.042*[#   9]+0.042*[#  11]+0.042*[#  14]+
          +0.042*[#  15]+0.042*[#  17]+0.042*[#  20]+0.042*[#  21]+0.042*[#  23]+
          +0.005*[#   6]+0.005*[#  12]+0.005*[#  18]+0.005*[#  24]+
    |psi|^2 = 0.999
==== e(  21) =     6.77018 eV ==== 
     psi = 0.085*[#   1]+0.085*[#   4]+0.085*[#   7]+0.085*[#  10]+0.085*[#  13]+
          +0.085*[#  16]+0.085*[#  19]+0.085*[#  22]+0.025*[#   2]+0.025*[#   3]+
          +0.025*[#   5]+0.025*[#   8]+0.025*[#   9]+0.025*[#  11]+0.025*[#  14]+
          +0.025*[#  15]+0.025*[#  17]+0.025*[#  20]+0.025*[#  21]+0.025*[#  23]+
          +0.002*[#   6]+0.002*[#  12]+0.002*[#  18]+0.002*[#  24]+0.001*[#  26]+
          +0.001*[#  27]+0.001*[#  28]+0.001*[#  30]+0.001*[#  31]+0.001*[#  32]+
    |psi|^2 = 0.994
==== e(  22) =     6.81046 eV ==== 
     psi = 0.067*[#   2]+0.067*[#   3]+0.067*[#   5]+0.067*[#   8]+0.067*[#   9]+
          +0.067*[#  11]+0.067*[#  14]+0.067*[#  15]+0.067*[#  17]+0.067*[#  20]+
          +0.067*[#  21]+0.067*[#  23]+0.018*[#   1]+0.018*[#   4]+0.018*[#   7]+
          +0.018*[#  10]+0.018*[#  13]+0.018*[#  16]+0.018*[#  19]+0.018*[#  22]+
          +0.006*[#  26]+0.006*[#  27]+0.006*[#  28]+0.006*[#  30]+0.006*[#  31]+
          +0.006*[#  32]+0.003*[#   6]+0.003*[#  12]+0.003*[#  18]+0.003*[#  24]+
          +0.003*[#  25]+0.003*[#  29]+
    |psi|^2 = 0.995
==== e(  23) =     6.82385 eV ==== 
     psi = 0.089*[#   1]+0.089*[#   4]+0.089*[#   7]+0.089*[#  10]+0.089*[#  13]+
          +0.089*[#  16]+0.089*[#  19]+0.089*[#  22]+0.021*[#   2]+0.021*[#   3]+
          +0.021*[#   5]+0.021*[#   8]+0.021*[#   9]+0.021*[#  11]+0.021*[#  14]+
          +0.021*[#  15]+0.021*[#  17]+0.021*[#  20]+0.021*[#  21]+0.021*[#  23]+
          +0.006*[#  26]+0.006*[#  27]+0.006*[#  28]+0.006*[#  30]+0.006*[#  31]+
          +0.006*[#  32]+
    |psi|^2 = 0.998
==== e(  24) =     6.95588 eV ==== 
     psi = 0.059*[#   2]+0.059*[#   3]+0.059*[#   5]+0.059*[#   8]+0.059*[#   9]+
          +0.059*[#  11]+0.059*[#  14]+0.059*[#  15]+0.059*[#  17]+0.059*[#  20]+
          +0.059*[#  21]+0.059*[#  23]+0.025*[#   1]+0.025*[#   4]+0.025*[#   7]+
          +0.025*[#  10]+0.025*[#  13]+0.025*[#  16]+0.025*[#  19]+0.025*[#  22]+
          +0.015*[#  26]+0.015*[#  27]+0.015*[#  28]+0.015*[#  30]+0.015*[#  31]+
          +0.015*[#  32]+
    |psi|^2 = 0.997
==== e(  25) =     6.98815 eV ==== 
     psi = 0.050*[#   1]+0.050*[#   4]+0.050*[#   7]+0.050*[#  10]+0.050*[#  13]+
          +0.050*[#  16]+0.050*[#  19]+0.050*[#  22]+0.034*[#   2]+0.034*[#   3]+
          +0.034*[#   5]+0.034*[#   8]+0.034*[#   9]+0.034*[#  11]+0.034*[#  14]+
          +0.034*[#  15]+0.034*[#  17]+0.034*[#  20]+0.034*[#  21]+0.034*[#  23]+
          +0.030*[#  26]+0.030*[#  27]+0.030*[#  28]+0.030*[#  30]+0.030*[#  31]+
          +0.030*[#  32]+
    |psi|^2 = 0.992
==== e(  26) =     7.26803 eV ==== 
     psi = 0.044*[#   2]+0.044*[#   3]+0.044*[#   5]+0.044*[#   8]+0.044*[#   9]+
          +0.044*[#  11]+0.044*[#  14]+0.044*[#  15]+0.044*[#  17]+0.044*[#  20]+
          +0.044*[#  21]+0.044*[#  23]+0.040*[#   6]+0.040*[#  12]+0.040*[#  18]+
          +0.040*[#  24]+0.029*[#   1]+0.029*[#   4]+0.029*[#   7]+0.029*[#  10]+
          +0.029*[#  13]+0.029*[#  16]+0.029*[#  19]+0.029*[#  22]+0.009*[#  26]+
          +0.009*[#  27]+0.009*[#  28]+0.009*[#  30]+0.009*[#  31]+0.009*[#  32]+
    |psi|^2 = 0.975
==== e(  27) =     7.89125 eV ==== 
     psi = 0.043*[#   2]+0.043*[#   3]+0.043*[#   5]+0.043*[#   8]+0.043*[#   9]+
          +0.043*[#  11]+0.043*[#  14]+0.043*[#  15]+0.043*[#  17]+0.043*[#  20]+
          +0.043*[#  21]+0.043*[#  23]+0.033*[#   6]+0.033*[#  12]+0.033*[#  18]+
          +0.033*[#  24]+0.024*[#  26]+0.024*[#  27]+0.024*[#  28]+0.024*[#  30]+
          +0.024*[#  31]+0.024*[#  32]+0.023*[#   1]+0.023*[#   4]+0.023*[#   7]+
          +0.023*[#  10]+0.023*[#  13]+0.023*[#  16]+0.023*[#  19]+0.023*[#  22]+
    |psi|^2 = 0.981
==== e(  28) =     8.15467 eV ==== 
     psi = 0.044*[#   2]+0.044*[#   3]+0.044*[#   5]+0.044*[#   8]+0.044*[#   9]+
          +0.044*[#  11]+0.044*[#  14]+0.044*[#  15]+0.044*[#  17]+0.044*[#  20]+
          +0.044*[#  21]+0.044*[#  23]+0.034*[#  26]+0.034*[#  27]+0.034*[#  28]+
          +0.034*[#  30]+0.034*[#  31]+0.034*[#  32]+0.022*[#   6]+0.022*[#  12]+
          +0.022*[#  18]+0.022*[#  24]+0.021*[#   1]+0.021*[#   4]+0.021*[#   7]+
          +0.021*[#  10]+0.021*[#  13]+0.021*[#  16]+0.021*[#  19]+0.021*[#  22]+
    |psi|^2 = 0.994
==== e(  29) =     9.80122 eV ==== 
     psi = 0.075*[#   6]+0.075*[#  12]+0.075*[#  18]+0.075*[#  24]+0.069*[#  25]+
          +0.069*[#  29]+0.032*[#   2]+0.032*[#   3]+0.032*[#   5]+0.032*[#   8]+
          +0.032*[#   9]+0.032*[#  11]+0.032*[#  14]+0.032*[#  15]+0.032*[#  17]+
          +0.032*[#  20]+0.032*[#  21]+0.032*[#  23]+0.025*[#  26]+0.025*[#  27]+
          +0.025*[#  28]+0.025*[#  30]+0.025*[#  31]+0.025*[#  32]+
    |psi|^2 = 0.974
==== e(  30) =    11.06453 eV ==== 
     psi = 0.071*[#   6]+0.071*[#  12]+0.071*[#  18]+0.071*[#  24]+0.015*[#  26]+
          +0.015*[#  27]+0.015*[#  28]+0.015*[#  30]+0.015*[#  31]+0.015*[#  32]+
          +0.012*[#  25]+0.012*[#  29]+0.008*[#   2]+0.008*[#   3]+0.008*[#   5]+
          +0.008*[#   8]+0.008*[#   9]+0.008*[#  11]+0.008*[#  14]+0.008*[#  15]+
          +0.008*[#  17]+0.008*[#  20]+0.008*[#  21]+0.008*[#  23]+
    |psi|^2 = 0.498
==== e(  31) =    11.60033 eV ==== 
     psi = 0.073*[#   6]+0.073*[#  12]+0.073*[#  18]+0.073*[#  24]+0.034*[#  26]+
          +0.034*[#  27]+0.034*[#  28]+0.034*[#  30]+0.034*[#  31]+0.034*[#  32]+
          +0.012*[#   2]+0.012*[#   3]+0.012*[#   5]+0.012*[#   8]+0.012*[#   9]+
          +0.012*[#  11]+0.012*[#  14]+0.012*[#  15]+0.012*[#  17]+0.012*[#  20]+
          +0.012*[#  21]+0.012*[#  23]+0.001*[#   1]+0.001*[#   4]+0.001*[#   7]+
          +0.001*[#  10]+0.001*[#  13]+0.001*[#  16]+0.001*[#  19]+0.001*[#  22]+
    |psi|^2 = 0.651
==== e(  32) =    13.87383 eV ==== 
     psi = 0.049*[#   6]+0.049*[#  12]+0.049*[#  18]+0.049*[#  24]+0.005*[#  26]+
          +0.005*[#  27]+0.005*[#  28]+0.005*[#  30]+0.005*[#  31]+0.005*[#  32]+
          +0.001*[#   2]+0.001*[#   3]+0.001*[#   5]+0.001*[#   8]+0.001*[#   9]+
          +0.001*[#  11]+0.001*[#  14]+0.001*[#  15]+0.001*[#  17]+0.001*[#  20]+
          +0.001*[#  21]+0.001*[#  23]+
    |psi|^2 = 0.239

 k =   0.0000000000  0.2500000000 -0.5000000000
==== e(   1) =   -10.75871 eV ==== 
     psi = 0.864*[#  25]+0.025*[#   6]+0.025*[#  12]+0.025*[#  18]+0.025*[#  24]+
          +0.003*[#   2]+0.003*[#   3]+0.003*[#   5]+0.003*[#   8]+0.003*[#   9]+
          +0.003*[#  11]+0.003*[#  14]+0.003*[#  15]+0.003*[#  17]+0.003*[#  20]+
          +0.003*[#  21]+0.003*[#  23]+
    |psi|^2 = 0.998
==== e(   2) =   -10.75699 eV ==== 
     psi = 0.864*[#  29]+0.025*[#   6]+0.025*[#  12]+0.025*[#  18]+0.025*[#  24]+
          +0.003*[#   2]+0.003*[#   3]+0.003*[#   5]+0.003*[#   8]+0.003*[#   9]+
          +0.003*[#  11]+0.003*[#  14]+0.003*[#  15]+0.003*[#  17]+0.003*[#  20]+
          +0.003*[#  21]+0.003*[#  23]+
    |psi|^2 = 0.998
==== e(   3) =     1.88149 eV ==== 
     psi = 0.123*[#  26]+0.123*[#  27]+0.123*[#  28]+0.102*[#  30]+0.102*[#  31]+
          +0.102*[#  32]+0.038*[#   6]+0.038*[#  12]+0.038*[#  18]+0.038*[#  24]+
          +0.011*[#   2]+0.011*[#   3]+0.011*[#   5]+0.011*[#   8]+0.011*[#   9]+
          +0.011*[#  11]+0.011*[#  14]+0.011*[#  15]+0.011*[#  17]+0.011*[#  20]+
          +0.011*[#  21]+0.011*[#  23]+0.006*[#  29]+0.004*[#   1]+0.004*[#   4]+
          +0.004*[#   7]+0.004*[#  10]+0.004*[#  13]+0.004*[#  16]+0.004*[#  19]+
          +0.004*[#  22]+
    |psi|^2 = 0.995
==== e(   4) =     1.88149 eV ==== 
     psi = 0.123*[#  30]+0.123*[#  31]+0.123*[#  32]+0.102*[#  26]+0.102*[#  27]+
          +0.102*[#  28]+0.038*[#   6]+0.038*[#  12]+0.038*[#  18]+0.038*[#  24]+
          +0.011*[#   2]+0.011*[#   3]+0.011*[#   5]+0.011*[#   8]+0.011*[#   9]+
          +0.011*[#  11]+0.011*[#  14]+0.011*[#  15]+0.011*[#  17]+0.011*[#  20]+
          +0.011*[#  21]+0.011*[#  23]+0.006*[#  25]+0.004*[#   1]+0.004*[#   4]+
          +0.004*[#   7]+0.004*[#  10]+0.004*[#  13]+0.004*[#  16]+0.004*[#  19]+
          +0.004*[#  22]+
    |psi|^2 = 0.995
==== e(   5) =     2.68802 eV ==== 
     psi = 0.242*[#  26]+0.242*[#  27]+0.242*[#  28]+0.013*[#   2]+0.013*[#   3]+
          +0.013*[#   5]+0.013*[#   8]+0.013*[#   9]+0.013*[#  11]+0.013*[#  14]+
          +0.013*[#  15]+0.013*[#  17]+0.013*[#  20]+0.013*[#  21]+0.013*[#  23]+
          +0.010*[#   1]+0.010*[#   4]+0.010*[#   7]+0.010*[#  10]+0.010*[#  13]+
          +0.010*[#  16]+0.010*[#  19]+0.010*[#  22]+0.008*[#  29]+0.004*[#   6]+
          +0.004*[#  12]+0.004*[#  18]+0.004*[#  24]+0.003*[#  30]+0.003*[#  31]+
          +0.003*[#  32]+
    |psi|^2 = 0.990
==== e(   6) =     2.68808 eV ==== 
     psi = 0.242*[#  30]+0.242*[#  31]+0.242*[#  32]+0.013*[#   2]+0.013*[#   3]+
          +0.013*[#   5]+0.013*[#   8]+0.013*[#   9]+0.013*[#  11]+0.013*[#  14]+
          +0.013*[#  15]+0.013*[#  17]+0.013*[#  20]+0.013*[#  21]+0.013*[#  23]+
          +0.010*[#   1]+0.010*[#   4]+0.010*[#   7]+0.010*[#  10]+0.010*[#  13]+
          +0.010*[#  16]+0.010*[#  19]+0.010*[#  22]+0.008*[#  25]+0.004*[#   6]+
          +0.004*[#  12]+0.004*[#  18]+0.004*[#  24]+0.003*[#  26]+0.003*[#  27]+
          +0.003*[#  28]+
    |psi|^2 = 0.990
==== e(   7) =     3.19146 eV ==== 
     psi = 0.134*[#  26]+0.134*[#  27]+0.134*[#  28]+0.114*[#  30]+0.114*[#  31]+
          +0.114*[#  32]+0.018*[#   1]+0.018*[#   4]+0.018*[#   7]+0.018*[#  10]+
          +0.018*[#  13]+0.018*[#  16]+0.018*[#  19]+0.018*[#  22]+0.007*[#   2]+
          +0.007*[#   3]+0.007*[#   5]+0.007*[#   8]+0.007*[#   9]+0.007*[#  11]+
          +0.007*[#  14]+0.007*[#  15]+0.007*[#  17]+0.007*[#  20]+0.007*[#  21]+
          +0.007*[#  23]+0.002*[#   6]+0.002*[#  12]+0.002*[#  18]+0.002*[#  24]+
          +0.002*[#  25]+
    |psi|^2 = 0.991
==== e(   8) =     3.19147 eV ==== 
     psi = 0.134*[#  30]+0.134*[#  31]+0.134*[#  32]+0.114*[#  26]+0.114*[#  27]+
          +0.114*[#  28]+0.018*[#   1]+0.018*[#   4]+0.018*[#   7]+0.018*[#  10]+
          +0.018*[#  13]+0.018*[#  16]+0.018*[#  19]+0.018*[#  22]+0.007*[#   2]+
          +0.007*[#   3]+0.007*[#   5]+0.007*[#   8]+0.007*[#   9]+0.007*[#  11]+
          +0.007*[#  14]+0.007*[#  15]+0.007*[#  17]+0.007*[#  20]+0.007*[#  21]+
          +0.007*[#  23]+0.002*[#   6]+0.002*[#  12]+0.002*[#  18]+0.002*[#  24]+
          +0.002*[#  29]+
    |psi|^2 = 0.991
==== e(   9) =     5.46474 eV ==== 
     psi = 0.071*[#   6]+0.071*[#  12]+0.071*[#  18]+0.071*[#  24]+0.056*[#   2]+
          +0.056*[#   3]+0.056*[#   5]+0.056*[#   8]+0.056*[#   9]+0.056*[#  11]+
          +0.056*[#  14]+0.056*[#  15]+0.056*[#  17]+0.056*[#  20]+0.056*[#  21]+
          +0.056*[#  23]+0.003*[#   1]+0.003*[#   4]+0.003*[#   7]+0.003*[#  10]+
          +0.003*[#  13]+0.003*[#  16]+0.003*[#  19]+0.003*[#  22]+0.002*[#  25]+
          +0.002*[#  30]+0.002*[#  31]+0.002*[#  32]+
    |psi|^2 = 0.993
==== e(  10) =     5.46474 eV ==== 
     psi = 0.071*[#   6]+0.071*[#  12]+0.071*[#  18]+0.071*[#  24]+0.056*[#   2]+
          +0.056*[#   3]+0.056*[#   5]+0.056*[#   8]+0.056*[#   9]+0.056*[#  11]+
          +0.056*[#  14]+0.056*[#  15]+0.056*[#  17]+0.056*[#  20]+0.056*[#  21]+
          +0.056*[#  23]+0.003*[#   1]+0.003*[#   4]+0.003*[#   7]+0.003*[#  10]+
          +0.003*[#  13]+0.003*[#  16]+0.003*[#  19]+0.003*[#  22]+0.002*[#  29]+
          +0.002*[#  26]+0.002*[#  27]+0.002*[#  28]+
    |psi|^2 = 0.993
==== e(  11) =     5.97562 eV ==== 
     psi = 0.076*[#   2]+0.076*[#   3]+0.076*[#   5]+0.076*[#   8]+0.076*[#   9]+
          +0.076*[#  11]+0.076*[#  14]+0.076*[#  15]+0.076*[#  17]+0.076*[#  20]+
          +0.076*[#  21]+0.076*[#  23]+0.007*[#   1]+0.007*[#   4]+0.007*[#   7]+
          +0.007*[#  10]+0.007*[#  13]+0.007*[#  16]+0.007*[#  19]+0.007*[#  22]+
          +0.006*[#   6]+0.006*[#  12]+0.006*[#  18]+0.006*[#  24]+
    |psi|^2 = 0.991
==== e(  12) =     5.97563 eV ==== 
     psi = 0.076*[#   2]+0.076*[#   3]+0.076*[#   5]+0.076*[#   8]+0.076*[#   9]+
          +0.076*[#  11]+0.076*[#  14]+0.076*[#  15]+0.076*[#  17]+0.076*[#  20]+
          +0.076*[#  21]+0.076*[#  23]+0.007*[#   1]+0.007*[#   4]+0.007*[#   7]+
          +0.007*[#  10]+0.007*[#  13]+0.007*[#  16]+0.007*[#  19]+0.007*[#  22]+
          +0.006*[#   6]+0.006*[#  12]+0.006*[#  18]+0.006*[#  24]+
    |psi|^2 = 0.991
==== e(  13) =     6.23507 eV ==== 
     psi = 0.052*[#   2]+0.052*[#   3]+0.052*[#   5]+0.052*[#   8]+0.052*[#   9]+
          +0.052*[#  11]+0.052*[#  14]+0.052*[#  15]+0.052*[#  17]+0.052*[#  20]+
          +0.052*[#  21]+0.052*[#  23]+0.045*[#   1]+0.045*[#   4]+0.045*[#   7]+
          +0.045*[#  10]+0.045*[#  13]+0.045*[#  16]+0.045*[#  19]+0.045*[#  22]+
          +0.004*[#  30]+0.004*[#  31]+0.004*[#  32]+0.002*[#  25]+
    |psi|^2 = 0.999
==== e(  14) =     6.23508 eV ==== 
     psi = 0.052*[#   2]+0.052*[#   3]+0.052*[#   5]+0.052*[#   8]+0.052*[#   9]+
          +0.052*[#  11]+0.052*[#  14]+0.052*[#  15]+0.052*[#  17]+0.052*[#  20]+
          +0.052*[#  21]+0.052*[#  23]+0.045*[#   1]+0.045*[#   4]+0.045*[#   7]+
          +0.045*[#  10]+0.045*[#  13]+0.045*[#  16]+0.045*[#  19]+0.045*[#  22]+
          +0.004*[#  26]+0.004*[#  27]+0.004*[#  28]+0.002*[#  29]+
    |psi|^2 = 0.999
==== e(  15) =     6.30189 eV ==== 
     psi = 0.080*[#   1]+0.080*[#   4]+0.080*[#   7]+0.080*[#  10]+0.080*[#  13]+
          +0.080*[#  16]+0.080*[#  19]+0.080*[#  22]+0.028*[#   2]+0.028*[#   3]+
          +0.028*[#   5]+0.028*[#   8]+0.028*[#   9]+0.028*[#  11]+0.028*[#  14]+
          +0.028*[#  15]+0.028*[#  17]+0.028*[#  20]+0.028*[#  21]+0.028*[#  23]+
          +0.002*[#   6]+0.002*[#  12]+0.002*[#  18]+0.002*[#  24]+
    |psi|^2 = 0.999
==== e(  16) =     6.30190 eV ==== 
     psi = 0.080*[#   1]+0.080*[#   4]+0.080*[#   7]+0.080*[#  10]+0.080*[#  13]+
          +0.080*[#  16]+0.080*[#  19]+0.080*[#  22]+0.028*[#   2]+0.028*[#   3]+
          +0.028*[#   5]+0.028*[#   8]+0.028*[#   9]+0.028*[#  11]+0.028*[#  14]+
          +0.028*[#  15]+0.028*[#  17]+0.028*[#  20]+0.028*[#  21]+0.028*[#  23]+
          +0.002*[#   6]+0.002*[#  12]+0.002*[#  18]+0.002*[#  24]+
    |psi|^2 = 0.999
==== e(  17) =     6.44092 eV ==== 
     psi = 0.092*[#   1]+0.092*[#   4]+0.092*[#   7]+0.092*[#  10]+0.092*[#  13]+
          +0.092*[#  16]+0.092*[#  19]+0.092*[#  22]+0.021*[#   2]+0.021*[#   3]+
          +0.021*[#   5]+0.021*[#   8]+0.021*[#   9]+0.021*[#  11]+0.021*[#  14]+
          +0.021*[#  15]+0.021*[#  17]+0.021*[#  20]+0.021*[#  21]+0.021*[#  23]+
          +0.001*[#  30]+0.001*[#  31]+0.001*[#  32]+
    |psi|^2 = 0.998
==== e(  18) =     6.44092 eV ==== 
     psi = 0.092*[#   1]+0.092*[#   4]+0.092*[#   7]+0.092*[#  10]+0.092*[#  13]+
          +0.092*[#  16]+0.092*[#  19]+0.092*[#  22]+0.021*[#   2]+0.021*[#   3]+
          +0.021*[#   5]+0.021*[#   8]+0.021*[#   9]+0.021*[#  11]+0.021*[#  14]+
          +0.021*[#  15]+0.021*[#  17]+0.021*[#  20]+0.021*[#  21]+0.021*[#  23]+
          +0.001*[#  26]+0.001*[#  27]+0.001*[#  28]+
    |psi|^2 = 0.998
==== e(  19) =     6.65679 eV ==== 
     psi = 0.103*[#   1]+0.103*[#   4]+0.103*[#   7]+0.103*[#  10]+0.103*[#  13]+
          +0.103*[#  16]+0.103*[#  19]+0.103*[#  22]+0.013*[#   2]+0.013*[#   3]+
          +0.013*[#   5]+0.013*[#   8]+0.013*[#   9]+0.013*[#  11]+0.013*[#  14]+
          +0.013*[#  15]+0.013*[#  17]+0.013*[#  20]+0.013*[#  21]+0.013*[#  23]+
          +0.004*[#  25]+0.003*[#  30]+0.003*[#  31]+0.003*[#  32]+
    |psi|^2 = 0.998
==== e(  20) =     6.65680 eV ==== 
     psi = 0.103*[#   1]+0.103*[#   4]+0.103*[#   7]+0.103*[#  10]+0.103*[#  13]+
          +0.103*[#  16]+0.103*[#  19]+0.103*[#  22]+0.013*[#   2]+0.013*[#   3]+
          +0.013*[#   5]+0.013*[#   8]+0.013*[#   9]+0.013*[#  11]+0.013*[#  14]+
          +0.013*[#  15]+0.013*[#  17]+0.013*[#  20]+0.013*[#  21]+0.013*[#  23]+
          +0.004*[#  29]+0.003*[#  26]+0.003*[#  27]+0.003*[#  28]+
    |psi|^2 = 0.998
==== e(  21) =     6.69037 eV ==== 
     psi = 0.050*[#   1]+0.050*[#   4]+0.050*[#   7]+0.050*[#  10]+0.050*[#  13]+
          +0.050*[#  16]+0.050*[#  19]+0.050*[#  22]+0.047*[#   2]+0.047*[#   3]+
          +0.047*[#   5]+0.047*[#   8]+0.047*[#   9]+0.047*[#  11]+0.047*[#  14]+
          +0.047*[#  15]+0.047*[#  17]+0.047*[#  20]+0.047*[#  21]+0.047*[#  23]+
          +0.005*[#  30]+0.005*[#  31]+0.005*[#  32]+0.003*[#   6]+0.003*[#  12]+
          +0.003*[#  18]+0.003*[#  24]+0.001*[#  25]+
    |psi|^2 = 0.998
==== e(  22) =     6.69037 eV ==== 
     psi = 0.050*[#   1]+0.050*[#   4]+0.050*[#   7]+0.050*[#  10]+0.050*[#  13]+
          +0.050*[#  16]+0.050*[#  19]+0.050*[#  22]+0.047*[#   2]+0.047*[#   3]+
          +0.047*[#   5]+0.047*[#   8]+0.047*[#   9]+0.047*[#  11]+0.047*[#  14]+
          +0.047*[#  15]+0.047*[#  17]+0.047*[#  20]+0.047*[#  21]+0.047*[#  23]+
          +0.005*[#  26]+0.005*[#  27]+0.005*[#  28]+0.003*[#   6]+0.003*[#  12]+
          +0.003*[#  18]+0.003*[#  24]+0.001*[#  29]+
    |psi|^2 = 0.998
==== e(  23) =     6.93271 eV ==== 
     psi = 0.062*[#   2]+0.062*[#   3]+0.062*[#   5]+0.062*[#   8]+0.062*[#   9]+
          +0.062*[#  11]+0.062*[#  14]+0.062*[#  15]+0.062*[#  17]+0.062*[#  20]+
          +0.062*[#  21]+0.062*[#  23]+0.022*[#   1]+0.022*[#   4]+0.022*[#   7]+
          +0.022*[#  10]+0.022*[#  13]+0.022*[#  16]+0.022*[#  19]+0.022*[#  22]+
          +0.011*[#   6]+0.011*[#  12]+0.011*[#  18]+0.011*[#  24]+0.008*[#  30]+
          +0.008*[#  31]+0.008*[#  32]+0.002*[#  25]+
    |psi|^2 = 0.994
==== e(  24) =     6.93272 eV ==== 
     psi = 0.062*[#   2]+0.062*[#   3]+0.062*[#   5]+0.062*[#   8]+0.062*[#   9]+
          +0.062*[#  11]+0.062*[#  14]+0.062*[#  15]+0.062*[#  17]+0.062*[#  20]+
          +0.062*[#  21]+0.062*[#  23]+0.022*[#   1]+0.022*[#   4]+0.022*[#   7]+
          +0.022*[#  10]+0.022*[#  13]+0.022*[#  16]+0.022*[#  19]+0.022*[#  22]+
          +0.011*[#   6]+0.011*[#  12]+0.011*[#  18]+0.011*[#  24]+0.008*[#  26]+
          +0.008*[#  27]+0.008*[#  28]+0.002*[#  29]+
    |psi|^2 = 0.994
==== e(  25) =     7.19638 eV ==== 
     psi = 0.051*[#   1]+0.051*[#   4]+0.051*[#   7]+0.051*[#  10]+0.051*[#  13]+
          +0.051*[#  16]+0.051*[#  19]+0.051*[#  22]+0.039*[#  30]+0.039*[#  31]+
          +0.039*[#  32]+0.033*[#  26]+0.033*[#  27]+0.033*[#  28]+0.030*[#   2]+
          +0.030*[#   3]+0.030*[#   5]+0.030*[#   8]+0.030*[#   9]+0.030*[#  11]+
          +0.030*[#  14]+0.030*[#  15]+0.030*[#  17]+0.030*[#  20]+0.030*[#  21]+
          +0.030*[#  23]+0.001*[#   6]+0.001*[#  12]+0.001*[#  18]+0.001*[#  24]+
    |psi|^2 = 0.989
==== e(  26) =     7.19638 eV ==== 
     psi = 0.051*[#   1]+0.051*[#   4]+0.051*[#   7]+0.051*[#  10]+0.051*[#  13]+
          +0.051*[#  16]+0.051*[#  19]+0.051*[#  22]+0.039*[#  26]+0.039*[#  27]+
          +0.039*[#  28]+0.033*[#  30]+0.033*[#  31]+0.033*[#  32]+0.030*[#   2]+
          +0.030*[#   3]+0.030*[#   5]+0.030*[#   8]+0.030*[#   9]+0.030*[#  11]+
          +0.030*[#  14]+0.030*[#  15]+0.030*[#  17]+0.030*[#  20]+0.030*[#  21]+
          +0.030*[#  23]+0.001*[#   6]+0.001*[#  12]+0.001*[#  18]+0.001*[#  24]+
    |psi|^2 = 0.989
==== e(  27) =     7.92163 eV ==== 
     psi = 0.053*[#   2]+0.053*[#   3]+0.053*[#   5]+0.053*[#   8]+0.053*[#   9]+
          +0.053*[#  11]+0.053*[#  14]+0.053*[#  15]+0.053*[#  17]+0.053*[#  20]+
          +0.053*[#  21]+0.053*[#  23]+0.045*[#  30]+0.045*[#  31]+0.045*[#  32]+
          +0.024*[#   6]+0.024*[#  12]+0.024*[#  18]+0.024*[#  24]+0.014*[#  26]+
          +0.014*[#  27]+0.014*[#  28]+0.011*[#   1]+0.011*[#   4]+0.011*[#   7]+
          +0.011*[#  10]+0.011*[#  13]+0.011*[#  16]+0.011*[#  19]+0.011*[#  22]+
          +0.002*[#  25]+
    |psi|^2 = 0.995
==== e(  28) =     7.92165 eV ==== 
     psi = 0.053*[#   2]+0.053*[#   3]+0.053*[#   5]+0.053*[#   8]+0.053*[#   9]+
          +0.053*[#  11]+0.053*[#  14]+0.053*[#  15]+0.053*[#  17]+0.053*[#  20]+
          +0.053*[#  21]+0.053*[#  23]+0.045*[#  26]+0.045*[#  27]+0.045*[#  28]+
          +0.024*[#   6]+0.024*[#  12]+0.024*[#  18]+0.024*[#  24]+0.014*[#  30]+
          +0.014*[#  31]+0.014*[#  32]+0.011*[#   1]+0.011*[#   4]+0.011*[#   7]+
          +0.011*[#  10]+0.011*[#  13]+0.011*[#  16]+0.011*[#  19]+0.011*[#  22]+
          +0.002*[#  29]+
    |psi|^2 = 0.995
==== e(  29) =    10.64177 eV ==== 
     psi = 0.105*[#   6]+0.105*[#  12]+0.105*[#  18]+0.105*[#  24]+0.088*[#  25]+
          +0.049*[#  30]+0.049*[#  31]+0.049*[#  32]+0.019*[#   2]+0.019*[#   3]+
          +0.019*[#   5]+0.019*[#   8]+0.019*[#   9]+0.019*[#  11]+0.019*[#  14]+
          +0.019*[#  15]+0.019*[#  17]+0.019*[#  20]+0.019*[#  21]+0.019*[#  23]+
          +0.003*[#  26]+0.003*[#  27]+0.003*[#  28]+0.001*[#   1]+0.001*[#   4]+
          +0.001*[#   7]+0.001*[#  10]+0.001*[#  13]+0.001*[#  16]+0.001*[#  19]+
          +0.001*[#  22]+
    |psi|^2 = 0.899
==== e(  30) =    10.64199 eV ==== 
     psi = 0.105*[#   6]+0.105*[#  12]+0.105*[#  18]+0.105*[#  24]+0.088*[#  29]+
          +0.049*[#  26]+0.049*[#  27]+0.049*[#  28]+0.019*[#   2]+0.019*[#   3]+
          +0.019*[#   5]+0.019*[#   8]+0.019*[#   9]+0.019*[#  11]+0.019*[#  14]+
          +0.019*[#  15]+0.019*[#  17]+0.019*[#  20]+0.019*[#  21]+0.019*[#  23]+
          +0.003*[#  30]+0.003*[#  31]+0.003*[#  32]+0.001*[#   1]+0.001*[#   4]+
          +0.001*[#   7]+0.001*[#  10]+0.001*[#  13]+0.001*[#  16]+0.001*[#  19]+
          +0.001*[#  22]+
    |psi|^2 = 0.899
==== e(  31) =    12.36984 eV ==== 
     psi = 0.074*[#   6]+0.074*[#  12]+0.074*[#  18]+0.074*[#  24]+0.023*[#  30]+
          +0.023*[#  31]+0.023*[#  32]+0.015*[#  26]+0.015*[#  27]+0.015*[#  28]+
          +0.006*[#   2]+0.006*[#   3]+0.006*[#   5]+0.006*[#   8]+0.006*[#   9]+
          +0.006*[#  11]+0.006*[#  14]+0.006*[#  15]+0.006*[#  17]+0.006*[#  20]+
          +0.006*[#  21]+0.006*[#  23]+
    |psi|^2 = 0.483
==== e(  32) =    12.36986 eV ==== 
     psi = 0.074*[#   6]+0.074*[#  12]+0.074*[#  18]+0.074*[#  24]+0.023*[#  26]+
          +0.023*[#  27]+0.023*[#  28]+0.015*[#  30]+0.015*[#  31]+0.015*[#  32]+
          +0.006*[#   2]+0.006*[#   3]+0.006*[#   5]+0.006*[#   8]+0.006*[#   9]+
          +0.006*[#  11]+0.006*[#  14]+0.006*[#  15]+0.006*[#  17]+0.006*[#  20]+
          +0.006*[#  21]+0.006*[#  23]+
    |psi|^2 = 0.483

 k =   0.0000000000 -0.5000000000 -0.5000000000
==== e(   1) =   -10.74926 eV ==== 
     psi = 0.870*[#  25]+0.023*[#   6]+0.023*[#  12]+0.023*[#  18]+0.023*[#  24]+
          +0.003*[#   2]+0.003*[#   3]+0.003*[#   5]+0.003*[#   8]+0.003*[#   9]+
          +0.003*[#  11]+0.003*[#  14]+0.003*[#  15]+0.003*[#  17]+0.003*[#  20]+
          +0.003*[#  21]+0.003*[#  23]+
    |psi|^2 = 0.998
==== e(   2) =   -10.74754 eV ==== 
     psi = 0.870*[#  29]+0.023*[#   6]+0.023*[#  12]+0.023*[#  18]+0.023*[#  24]+
          +0.003*[#   2]+0.003*[#   3]+0.003*[#   5]+0.003*[#   8]+0.003*[#   9]+
          +0.003*[#  11]+0.003*[#  14]+0.003*[#  15]+0.003*[#  17]+0.003*[#  20]+
          +0.003*[#  21]+0.003*[#  23]+
    |psi|^2 = 0.998
==== e(   3) =     1.66781 eV ==== 
     psi = 0.113*[#  26]+0.113*[#  27]+0.113*[#  28]+0.113*[#  30]+0.113*[#  31]+
          +0.113*[#  32]+0.045*[#   6]+0.045*[#  12]+0.045*[#  18]+0.045*[#  24]+
          +0.009*[#   2]+0.009*[#   3]+0.009*[#   5]+0.009*[#   8]+0.009*[#   9]+
          +0.009*[#  11]+0.009*[#  14]+0.009*[#  15]+0.009*[#  17]+0.009*[#  20]+
          +0.009*[#  21]+0.009*[#  23]+0.003*[#   1]+0.003*[#   4]+0.003*[#   7]+
          +0.003*[#  10]+0.003*[#  13]+0.003*[#  16]+0.003*[#  19]+0.003*[#  22]+
    |psi|^2 = 0.996
==== e(   4) =     1.66781 eV ==== 
     psi = 0.113*[#  26]+0.113*[#  27]+0.113*[#  28]+0.113*[#  30]+0.113*[#  31]+
          +0.113*[#  32]+0.045*[#   6]+0.045*[#  12]+0.045*[#  18]+0.045*[#  24]+
          +0.009*[#   2]+0.009*[#   3]+0.009*[#   5]+0.009*[#   8]+0.009*[#   9]+
          +0.009*[#  11]+0.009*[#  14]+0.009*[#  15]+0.009*[#  17]+0.009*[#  20]+
          +0.009*[#  21]+0.009*[#  23]+0.003*[#   1]+0.003*[#   4]+0.003*[#   7]+
          +0.003*[#  10]+0.003*[#  13]+0.003*[#  16]+0.003*[#  19]+0.003*[#  22]+
    |psi|^2 = 0.996
==== e(   5) =     2.74118 eV ==== 
     psi = 0.248*[#  26]+0.248*[#  27]+0.248*[#  28]+0.013*[#   2]+0.013*[#   3]+
          +0.013*[#   5]+0.013*[#   8]+0.013*[#   9]+0.013*[#  11]+0.013*[#  14]+
          +0.013*[#  15]+0.013*[#  17]+0.013*[#  20]+0.013*[#  21]+0.013*[#  23]+
          +0.011*[#   1]+0.011*[#   4]+0.011*[#   7]+0.011*[#  10]+0.011*[#  13]+
          +0.011*[#  16]+0.011*[#  19]+0.011*[#  22]+0.006*[#  29]+
    |psi|^2 = 0.990
==== e(   6) =     2.74124 eV ==== 
     psi = 0.248*[#  30]+0.248*[#  31]+0.248*[#  32]+0.013*[#   2]+0.013*[#   3]+
          +0.013*[#   5]+0.013*[#   8]+0.013*[#   9]+0.013*[#  11]+0.013*[#  14]+
          +0.013*[#  15]+0.013*[#  17]+0.013*[#  20]+0.013*[#  21]+0.013*[#  23]+
          +0.011*[#   1]+0.011*[#   4]+0.011*[#   7]+0.011*[#  10]+0.011*[#  13]+
          +0.011*[#  16]+0.011*[#  19]+0.011*[#  22]+0.006*[#  25]+
    |psi|^2 = 0.990
==== e(   7) =     3.34847 eV ==== 
     psi = 0.126*[#  26]+0.126*[#  27]+0.126*[#  28]+0.127*[#  30]+0.127*[#  31]+
          +0.127*[#  32]+0.013*[#   1]+0.013*[#   4]+0.013*[#   7]+0.013*[#  10]+
          +0.013*[#  13]+0.013*[#  16]+0.013*[#  19]+0.013*[#  22]+0.011*[#   2]+
          +0.011*[#   3]+0.011*[#   5]+0.011*[#   8]+0.011*[#   9]+0.011*[#  11]+
          +0.011*[#  14]+0.011*[#  15]+0.011*[#  17]+0.011*[#  20]+0.011*[#  21]+
          +0.011*[#  23]+
    |psi|^2 = 0.991
==== e(   8) =     3.34847 eV ==== 
     psi = 0.126*[#  26]+0.126*[#  27]+0.126*[#  28]+0.127*[#  30]+0.127*[#  31]+
          +0.127*[#  32]+0.013*[#   1]+0.013*[#   4]+0.013*[#   7]+0.013*[#  10]+
          +0.013*[#  13]+0.013*[#  16]+0.013*[#  19]+0.013*[#  22]+0.011*[#   2]+
          +0.011*[#   3]+0.011*[#   5]+0.011*[#   8]+0.011*[#   9]+0.011*[#  11]+
          +0.011*[#  14]+0.011*[#  15]+0.011*[#  17]+0.011*[#  20]+0.011*[#  21]+
          +0.011*[#  23]+
    |psi|^2 = 0.991
==== e(   9) =     5.67397 eV ==== 
     psi = 0.067*[#   2]+0.067*[#   3]+0.067*[#   5]+0.067*[#   8]+0.067*[#   9]+
          +0.067*[#  11]+0.067*[#  14]+0.067*[#  15]+0.067*[#  17]+0.067*[#  20]+
          +0.067*[#  21]+0.067*[#  23]+0.045*[#   6]+0.045*[#  12]+0.045*[#  18]+
          +0.045*[#  24]+
    |psi|^2 = 0.990
==== e(  10) =     5.67397 eV ==== 
     psi = 0.067*[#   2]+0.067*[#   3]+0.067*[#   5]+0.067*[#   8]+0.067*[#   9]+
          +0.067*[#  11]+0.067*[#  14]+0.067*[#  15]+0.067*[#  17]+0.067*[#  20]+
          +0.067*[#  21]+0.067*[#  23]+0.045*[#   6]+0.045*[#  12]+0.045*[#  18]+
          +0.045*[#  24]+
    |psi|^2 = 0.990
==== e(  11) =     5.88346 eV ==== 
     psi = 0.074*[#   2]+0.074*[#   3]+0.074*[#   5]+0.074*[#   8]+0.074*[#   9]+
          +0.074*[#  11]+0.074*[#  14]+0.074*[#  15]+0.074*[#  17]+0.074*[#  20]+
          +0.074*[#  21]+0.074*[#  23]+0.022*[#   6]+0.022*[#  12]+0.022*[#  18]+
          +0.022*[#  24]+0.002*[#   1]+0.002*[#   4]+0.002*[#   7]+0.002*[#  10]+
          +0.002*[#  13]+0.002*[#  16]+0.002*[#  19]+0.002*[#  22]+
    |psi|^2 = 0.992
==== e(  12) =     5.88346 eV ==== 
     psi = 0.074*[#   2]+0.074*[#   3]+0.074*[#   5]+0.074*[#   8]+0.074*[#   9]+
[...]
    |psi|^2 = 0.994
==== e(  19) =     6.56380 eV ==== 
     psi = 0.110*[#   1]+0.110*[#   4]+0.110*[#   7]+0.110*[#  10]+0.110*[#  13]+
          +0.110*[#  16]+0.110*[#  19]+0.110*[#  22]+0.008*[#   2]+0.008*[#   3]+
          +0.008*[#   5]+0.008*[#   8]+0.008*[#   9]+0.008*[#  11]+0.008*[#  14]+
          +0.008*[#  15]+0.008*[#  17]+0.008*[#  20]+0.008*[#  21]+0.008*[#  23]+
          +0.003*[#   6]+0.003*[#  12]+0.003*[#  18]+0.003*[#  24]+0.002*[#  25]+
          +0.002*[#  29]+0.001*[#  26]+0.001*[#  27]+0.001*[#  28]+0.001*[#  30]+
          +0.001*[#  31]+0.001*[#  32]+
    |psi|^2 = 0.998
==== e(  20) =     6.63485 eV ==== 
     psi = 0.077*[#   2]+0.077*[#   3]+0.077*[#   5]+0.077*[#   8]+0.077*[#   9]+
          +0.077*[#  11]+0.077*[#  14]+0.077*[#  15]+0.077*[#  17]+0.077*[#  20]+
          +0.077*[#  21]+0.077*[#  23]+0.009*[#   1]+0.009*[#   4]+0.009*[#   7]+
          +0.009*[#  10]+0.009*[#  13]+0.009*[#  16]+0.009*[#  19]+0.009*[#  22]+
    |psi|^2 = 1.000
==== e(  21) =     6.81321 eV ==== 
     psi = 0.048*[#   2]+0.048*[#   3]+0.048*[#   5]+0.048*[#   8]+0.048*[#   9]+
          +0.048*[#  11]+0.048*[#  14]+0.048*[#  15]+0.048*[#  17]+0.048*[#  20]+
          +0.048*[#  21]+0.048*[#  23]+0.045*[#   1]+0.045*[#   4]+0.045*[#   7]+
          +0.045*[#  10]+0.045*[#  13]+0.045*[#  16]+0.045*[#  19]+0.045*[#  22]+
          +0.007*[#  26]+0.007*[#  27]+0.007*[#  28]+0.007*[#  30]+0.007*[#  31]+
          +0.007*[#  32]+0.001*[#   6]+0.001*[#  12]+0.001*[#  18]+0.001*[#  24]+
    |psi|^2 = 0.992
==== e(  22) =     6.81321 eV ==== 
     psi = 0.048*[#   2]+0.048*[#   3]+0.048*[#   5]+0.048*[#   8]+0.048*[#   9]+
          +0.048*[#  11]+0.048*[#  14]+0.048*[#  15]+0.048*[#  17]+0.048*[#  20]+
          +0.048*[#  21]+0.048*[#  23]+0.045*[#   1]+0.045*[#   4]+0.045*[#   7]+
          +0.045*[#  10]+0.045*[#  13]+0.045*[#  16]+0.045*[#  19]+0.045*[#  22]+
          +0.007*[#  26]+0.007*[#  27]+0.007*[#  28]+0.007*[#  30]+0.007*[#  31]+
          +0.007*[#  32]+0.001*[#   6]+0.001*[#  12]+0.001*[#  18]+0.001*[#  24]+
    |psi|^2 = 0.992
==== e(  23) =     6.83602 eV ==== 
     psi = 0.068*[#   1]+0.068*[#   4]+0.068*[#   7]+0.068*[#  10]+0.068*[#  13]+
          +0.068*[#  16]+0.068*[#  19]+0.068*[#  22]+0.036*[#   2]+0.036*[#   3]+
          +0.036*[#   5]+0.036*[#   8]+0.036*[#   9]+0.036*[#  11]+0.036*[#  14]+
          +0.036*[#  15]+0.036*[#  17]+0.036*[#  20]+0.036*[#  21]+0.036*[#  23]+
          +0.003*[#  26]+0.003*[#  27]+0.003*[#  28]+0.003*[#  30]+0.003*[#  31]+
          +0.003*[#  32]+0.001*[#   6]+0.001*[#  12]+0.001*[#  18]+0.001*[#  24]+
          +0.001*[#  25]+0.001*[#  29]+
    |psi|^2 = 0.998
==== e(  24) =     6.86722 eV ==== 
     psi = 0.054*[#   2]+0.054*[#   3]+0.054*[#   5]+0.054*[#   8]+0.054*[#   9]+
          +0.054*[#  11]+0.054*[#  14]+0.054*[#  15]+0.054*[#  17]+0.054*[#  20]+
          +0.054*[#  21]+0.054*[#  23]+0.045*[#   1]+0.045*[#   4]+0.045*[#   7]+
          +0.045*[#  10]+0.045*[#  13]+0.045*[#  16]+0.045*[#  19]+0.045*[#  22]+
    |psi|^2 = 1.000
==== e(  25) =     7.52693 eV ==== 
     psi = 0.050*[#   2]+0.050*[#   3]+0.050*[#   5]+0.050*[#   8]+0.050*[#   9]+
          +0.050*[#  11]+0.050*[#  14]+0.050*[#  15]+0.050*[#  17]+0.050*[#  20]+
          +0.050*[#  21]+0.050*[#  23]+0.033*[#   6]+0.033*[#  12]+0.033*[#  18]+
          +0.033*[#  24]+0.025*[#  26]+0.025*[#  27]+0.025*[#  28]+0.025*[#  30]+
          +0.025*[#  31]+0.025*[#  32]+0.013*[#   1]+0.013*[#   4]+0.013*[#   7]+
          +0.013*[#  10]+0.013*[#  13]+0.013*[#  16]+0.013*[#  19]+0.013*[#  22]+
    |psi|^2 = 0.992
==== e(  26) =     7.52693 eV ==== 
     psi = 0.050*[#   2]+0.050*[#   3]+0.050*[#   5]+0.050*[#   8]+0.050*[#   9]+
          +0.050*[#  11]+0.050*[#  14]+0.050*[#  15]+0.050*[#  17]+0.050*[#  20]+
          +0.050*[#  21]+0.050*[#  23]+0.033*[#   6]+0.033*[#  12]+0.033*[#  18]+
          +0.033*[#  24]+0.025*[#  26]+0.025*[#  27]+0.025*[#  28]+0.025*[#  30]+
          +0.025*[#  31]+0.025*[#  32]+0.013*[#   1]+0.013*[#   4]+0.013*[#   7]+
          +0.013*[#  10]+0.013*[#  13]+0.013*[#  16]+0.013*[#  19]+0.013*[#  22]+
    |psi|^2 = 0.992
==== e(  27) =     7.56120 eV ==== 
     psi = 0.069*[#   2]+0.069*[#   3]+0.069*[#   5]+0.069*[#   8]+0.069*[#   9]+
          +0.069*[#  11]+0.069*[#  14]+0.069*[#  15]+0.069*[#  17]+0.069*[#  20]+
          +0.069*[#  21]+0.069*[#  23]+0.015*[#  25]+0.015*[#  29]+0.014*[#  26]+
          +0.014*[#  27]+0.014*[#  28]+0.014*[#  30]+0.014*[#  31]+0.014*[#  32]+
          +0.011*[#   6]+0.011*[#  12]+0.011*[#  18]+0.011*[#  24]+0.002*[#   1]+
          +0.002*[#   4]+0.002*[#   7]+0.002*[#  10]+0.002*[#  13]+0.002*[#  16]+
          +0.002*[#  19]+0.002*[#  22]+
    |psi|^2 = 0.991
==== e(  28) =     7.88003 eV ==== 
     psi = 0.058*[#   2]+0.058*[#   3]+0.058*[#   5]+0.058*[#   8]+0.058*[#   9]+
          +0.058*[#  11]+0.058*[#  14]+0.058*[#  15]+0.058*[#  17]+0.058*[#  20]+
          +0.058*[#  21]+0.058*[#  23]+0.036*[#   6]+0.036*[#  12]+0.036*[#  18]+
          +0.036*[#  24]+0.023*[#  26]+0.023*[#  27]+0.023*[#  28]+0.023*[#  30]+
          +0.023*[#  31]+0.023*[#  32]+0.003*[#   1]+0.003*[#   4]+0.003*[#   7]+
          +0.003*[#  10]+0.003*[#  13]+0.003*[#  16]+0.003*[#  19]+0.003*[#  22]+
    |psi|^2 = 0.996
==== e(  29) =    10.38613 eV ==== 
     psi = 0.111*[#   6]+0.111*[#  12]+0.111*[#  18]+0.111*[#  24]+0.035*[#  25]+
          +0.035*[#  29]+0.003*[#  26]+0.003*[#  27]+0.003*[#  28]+0.003*[#  30]+
          +0.003*[#  31]+0.003*[#  32]+0.003*[#   2]+0.003*[#   3]+0.003*[#   5]+
          +0.003*[#   8]+0.003*[#   9]+0.003*[#  11]+0.003*[#  14]+0.003*[#  15]+
          +0.003*[#  17]+0.003*[#  20]+0.003*[#  21]+0.003*[#  23]+
    |psi|^2 = 0.568
==== e(  30) =    11.77807 eV ==== 
     psi = 0.045*[#   6]+0.045*[#  12]+0.045*[#  18]+0.045*[#  24]+0.026*[#  26]+
          +0.026*[#  27]+0.026*[#  28]+0.026*[#  30]+0.026*[#  31]+0.026*[#  32]+
          +0.008*[#   2]+0.008*[#   3]+0.008*[#   5]+0.008*[#   8]+0.008*[#   9]+
          +0.008*[#  11]+0.008*[#  14]+0.008*[#  15]+0.008*[#  17]+0.008*[#  20]+
          +0.008*[#  21]+0.008*[#  23]+
    |psi|^2 = 0.432
==== e(  31) =    11.77807 eV ==== 
     psi = 0.045*[#   6]+0.045*[#  12]+0.045*[#  18]+0.045*[#  24]+0.026*[#  26]+
          +0.026*[#  27]+0.026*[#  28]+0.026*[#  30]+0.026*[#  31]+0.026*[#  32]+
          +0.008*[#   2]+0.008*[#   3]+0.008*[#   5]+0.008*[#   8]+0.008*[#   9]+
          +0.008*[#  11]+0.008*[#  14]+0.008*[#  15]+0.008*[#  17]+0.008*[#  20]+
          +0.008*[#  21]+0.008*[#  23]+
    |psi|^2 = 0.432
==== e(  32) =    11.89990 eV ==== 
     psi = 0.146*[#   6]+0.146*[#  12]+0.146*[#  18]+0.146*[#  24]+0.023*[#  26]+
          +0.023*[#  27]+0.023*[#  28]+0.023*[#  30]+0.023*[#  31]+0.023*[#  32]+
          +0.019*[#  25]+0.019*[#  29]+0.010*[#   2]+0.010*[#   3]+0.010*[#   5]+
          +0.010*[#   8]+0.010*[#   9]+0.010*[#  11]+0.010*[#  14]+0.010*[#  15]+
          +0.010*[#  17]+0.010*[#  20]+0.010*[#  21]+0.010*[#  23]+0.003*[#   1]+
          +0.003*[#   4]+0.003*[#   7]+0.003*[#  10]+0.003*[#  13]+0.003*[#  16]+
          +0.003*[#  19]+0.003*[#  22]+
    |psi|^2 = 0.910

 k =  -0.5000000000 -0.5000000000 -0.5000000000
==== e(   1) =   -10.93588 eV ==== 
     psi = 0.407*[#  25]+0.403*[#  29]+0.029*[#   6]+0.029*[#  12]+0.029*[#  18]+
          +0.029*[#  24]+0.006*[#   2]+0.006*[#   3]+0.006*[#   5]+0.006*[#   8]+
          +0.006*[#   9]+0.006*[#  11]+0.006*[#  14]+0.006*[#  15]+0.006*[#  17]+
          +0.006*[#  20]+0.006*[#  21]+0.006*[#  23]+
    |psi|^2 = 0.999
==== e(   2) =   -10.51897 eV ==== 
     psi = 0.499*[#  29]+0.496*[#  25]+
    |psi|^2 = 0.995
==== e(   3) =     1.85587 eV ==== 
     psi = 0.108*[#  26]+0.108*[#  27]+0.108*[#  28]+0.108*[#  30]+0.108*[#  31]+
          +0.108*[#  32]+0.024*[#   6]+0.024*[#  12]+0.024*[#  18]+0.024*[#  24]+
          +0.017*[#   2]+0.017*[#   3]+0.017*[#   5]+0.017*[#   8]+0.017*[#   9]+
          +0.017*[#  11]+0.017*[#  14]+0.017*[#  15]+0.017*[#  17]+0.017*[#  20]+
          +0.017*[#  21]+0.017*[#  23]+0.006*[#   1]+0.006*[#   4]+0.006*[#   7]+
          +0.006*[#  10]+0.006*[#  13]+0.006*[#  16]+0.006*[#  19]+0.006*[#  22]+
    |psi|^2 = 0.999
==== e(   4) =     1.85587 eV ==== 
     psi = 0.108*[#  26]+0.108*[#  27]+0.108*[#  28]+0.108*[#  30]+0.108*[#  31]+
          +0.108*[#  32]+0.024*[#   6]+0.024*[#  12]+0.024*[#  18]+0.024*[#  24]+
          +0.017*[#   2]+0.017*[#   3]+0.017*[#   5]+0.017*[#   8]+0.017*[#   9]+
          +0.017*[#  11]+0.017*[#  14]+0.017*[#  15]+0.017*[#  17]+0.017*[#  20]+
          +0.017*[#  21]+0.017*[#  23]+0.006*[#   1]+0.006*[#   4]+0.006*[#   7]+
          +0.006*[#  10]+0.006*[#  13]+0.006*[#  16]+0.006*[#  19]+0.006*[#  22]+
    |psi|^2 = 0.999
==== e(   5) =     1.85587 eV ==== 
     psi = 0.108*[#  26]+0.108*[#  27]+0.108*[#  28]+0.108*[#  30]+0.108*[#  31]+
          +0.108*[#  32]+0.024*[#   6]+0.024*[#  12]+0.024*[#  18]+0.024*[#  24]+
          +0.017*[#   2]+0.017*[#   3]+0.017*[#   5]+0.017*[#   8]+0.017*[#   9]+
          +0.017*[#  11]+0.017*[#  14]+0.017*[#  15]+0.017*[#  17]+0.017*[#  20]+
          +0.017*[#  21]+0.017*[#  23]+0.006*[#   1]+0.006*[#   4]+0.006*[#   7]+
          +0.006*[#  10]+0.006*[#  13]+0.006*[#  16]+0.006*[#  19]+0.006*[#  22]+
    |psi|^2 = 0.999
==== e(   6) =     3.25721 eV ==== 
     psi = 0.156*[#  26]+0.156*[#  27]+0.156*[#  28]+0.156*[#  30]+0.156*[#  31]+
          +0.156*[#  32]+
    |psi|^2 = 0.937
==== e(   7) =     3.25721 eV ==== 
     psi = 0.156*[#  26]+0.156*[#  27]+0.156*[#  28]+0.156*[#  30]+0.156*[#  31]+
          +0.156*[#  32]+
    |psi|^2 = 0.937
==== e(   8) =     3.25721 eV ==== 
     psi = 0.156*[#  26]+0.156*[#  27]+0.156*[#  28]+0.156*[#  30]+0.156*[#  31]+
          +0.156*[#  32]+
    |psi|^2 = 0.937
==== e(   9) =     5.46376 eV ==== 
     psi = 0.074*[#   2]+0.074*[#   3]+0.074*[#   5]+0.074*[#   8]+0.074*[#   9]+
          +0.074*[#  11]+0.074*[#  14]+0.074*[#  15]+0.074*[#  17]+0.074*[#  20]+
          +0.074*[#  21]+0.074*[#  23]+0.023*[#   6]+0.023*[#  12]+0.023*[#  18]+
          +0.023*[#  24]+0.002*[#   1]+0.002*[#   4]+0.002*[#   7]+0.002*[#  10]+
          +0.002*[#  13]+0.002*[#  16]+0.002*[#  19]+0.002*[#  22]+
    |psi|^2 = 1.000
==== e(  10) =     5.46376 eV ==== 
     psi = 0.074*[#   2]+0.074*[#   3]+0.074*[#   5]+0.074*[#   8]+0.074*[#   9]+
          +0.074*[#  11]+0.074*[#  14]+0.074*[#  15]+0.074*[#  17]+0.074*[#  20]+
          +0.074*[#  21]+0.074*[#  23]+0.023*[#   6]+0.023*[#  12]+0.023*[#  18]+
          +0.023*[#  24]+0.002*[#   1]+0.002*[#   4]+0.002*[#   7]+0.002*[#  10]+
          +0.002*[#  13]+0.002*[#  16]+0.002*[#  19]+0.002*[#  22]+
    |psi|^2 = 1.000
==== e(  11) =     5.46376 eV ==== 
     psi = 0.074*[#   2]+0.074*[#   3]+0.074*[#   5]+0.074*[#   8]+0.074*[#   9]+
          +0.074*[#  11]+0.074*[#  14]+0.074*[#  15]+0.074*[#  17]+0.074*[#  20]+
          +0.074*[#  21]+0.074*[#  23]+0.023*[#   6]+0.023*[#  12]+0.023*[#  18]+
          +0.023*[#  24]+0.002*[#   1]+0.002*[#   4]+0.002*[#   7]+0.002*[#  10]+
          +0.002*[#  13]+0.002*[#  16]+0.002*[#  19]+0.002*[#  22]+
    |psi|^2 = 1.000
==== e(  12) =     6.00343 eV ==== 
     psi = 0.076*[#   1]+0.076*[#   4]+0.076*[#   7]+0.076*[#  10]+0.076*[#  13]+
          +0.076*[#  16]+0.076*[#  19]+0.076*[#  22]+0.032*[#   2]+0.032*[#   3]+
          +0.032*[#   5]+0.032*[#   8]+0.032*[#   9]+0.032*[#  11]+0.032*[#  14]+
          +0.032*[#  15]+0.032*[#  17]+0.032*[#  20]+0.032*[#  21]+0.032*[#  23]+
    |psi|^2 = 1.000
==== e(  13) =     6.00343 eV ==== 
     psi = 0.076*[#   1]+0.076*[#   4]+0.076*[#   7]+0.076*[#  10]+0.076*[#  13]+
          +0.076*[#  16]+0.076*[#  19]+0.076*[#  22]+0.032*[#   2]+0.032*[#   3]+
          +0.032*[#   5]+0.032*[#   8]+0.032*[#   9]+0.032*[#  11]+0.032*[#  14]+
          +0.032*[#  15]+0.032*[#  17]+0.032*[#  20]+0.032*[#  21]+0.032*[#  23]+
    |psi|^2 = 1.000
==== e(  14) =     6.31971 eV ==== 
     psi = 0.097*[#   1]+0.097*[#   4]+0.097*[#   7]+0.097*[#  10]+0.097*[#  13]+
          +0.097*[#  16]+0.097*[#  19]+0.097*[#  22]+0.019*[#   2]+0.019*[#   3]+
          +0.019*[#   5]+0.019*[#   8]+0.019*[#   9]+0.019*[#  11]+0.019*[#  14]+
          +0.019*[#  15]+0.019*[#  17]+0.019*[#  20]+0.019*[#  21]+0.019*[#  23]+
    |psi|^2 = 1.000
==== e(  15) =     6.31971 eV ==== 
     psi = 0.097*[#   1]+0.097*[#   4]+0.097*[#   7]+0.097*[#  10]+0.097*[#  13]+
          +0.097*[#  16]+0.097*[#  19]+0.097*[#  22]+0.019*[#   2]+0.019*[#   3]+
          +0.019*[#   5]+0.019*[#   8]+0.019*[#   9]+0.019*[#  11]+0.019*[#  14]+
          +0.019*[#  15]+0.019*[#  17]+0.019*[#  20]+0.019*[#  21]+0.019*[#  23]+
    |psi|^2 = 1.000
==== e(  16) =     6.31971 eV ==== 
     psi = 0.097*[#   1]+0.097*[#   4]+0.097*[#   7]+0.097*[#  10]+0.097*[#  13]+
          +0.097*[#  16]+0.097*[#  19]+0.097*[#  22]+0.019*[#   2]+0.019*[#   3]+
          +0.019*[#   5]+0.019*[#   8]+0.019*[#   9]+0.019*[#  11]+0.019*[#  14]+
          +0.019*[#  15]+0.019*[#  17]+0.019*[#  20]+0.019*[#  21]+0.019*[#  23]+
    |psi|^2 = 1.000
==== e(  17) =     6.57059 eV ==== 
     psi = 0.111*[#   1]+0.111*[#   4]+0.111*[#   7]+0.111*[#  10]+0.111*[#  13]+
          +0.111*[#  16]+0.111*[#  19]+0.111*[#  22]+0.008*[#   2]+0.008*[#   3]+
          +0.008*[#   5]+0.008*[#   8]+0.008*[#   9]+0.008*[#  11]+0.008*[#  14]+
          +0.008*[#  15]+0.008*[#  17]+0.008*[#  20]+0.008*[#  21]+0.008*[#  23]+
          +0.003*[#   6]+0.003*[#  12]+0.003*[#  18]+0.003*[#  24]+
    |psi|^2 = 1.000
==== e(  18) =     6.57059 eV ==== 
     psi = 0.111*[#   1]+0.111*[#   4]+0.111*[#   7]+0.111*[#  10]+0.111*[#  13]+
          +0.111*[#  16]+0.111*[#  19]+0.111*[#  22]+0.008*[#   2]+0.008*[#   3]+
          +0.008*[#   5]+0.008*[#   8]+0.008*[#   9]+0.008*[#  11]+0.008*[#  14]+
          +0.008*[#  15]+0.008*[#  17]+0.008*[#  20]+0.008*[#  21]+0.008*[#  23]+
          +0.003*[#   6]+0.003*[#  12]+0.003*[#  18]+0.003*[#  24]+
    |psi|^2 = 1.000
==== e(  19) =     6.57059 eV ==== 
     psi = 0.111*[#   1]+0.111*[#   4]+0.111*[#   7]+0.111*[#  10]+0.111*[#  13]+
          +0.111*[#  16]+0.111*[#  19]+0.111*[#  22]+0.008*[#   2]+0.008*[#   3]+
          +0.008*[#   5]+0.008*[#   8]+0.008*[#   9]+0.008*[#  11]+0.008*[#  14]+
          +0.008*[#  15]+0.008*[#  17]+0.008*[#  20]+0.008*[#  21]+0.008*[#  23]+
          +0.003*[#   6]+0.003*[#  12]+0.003*[#  18]+0.003*[#  24]+
    |psi|^2 = 1.000
==== e(  20) =     6.70334 eV ==== 
     psi = 0.065*[#   2]+0.065*[#   3]+0.065*[#   5]+0.065*[#   8]+0.065*[#   9]+
          +0.065*[#  11]+0.065*[#  14]+0.065*[#  15]+0.065*[#  17]+0.065*[#  20]+
          +0.065*[#  21]+0.065*[#  23]+0.028*[#   1]+0.028*[#   4]+0.028*[#   7]+
          +0.028*[#  10]+0.028*[#  13]+0.028*[#  16]+0.028*[#  19]+0.028*[#  22]+
    |psi|^2 = 1.000
==== e(  21) =     6.70334 eV ==== 
     psi = 0.065*[#   2]+0.065*[#   3]+0.065*[#   5]+0.065*[#   8]+0.065*[#   9]+
          +0.065*[#  11]+0.065*[#  14]+0.065*[#  15]+0.065*[#  17]+0.065*[#  20]+
          +0.065*[#  21]+0.065*[#  23]+0.028*[#   1]+0.028*[#   4]+0.028*[#   7]+
          +0.028*[#  10]+0.028*[#  13]+0.028*[#  16]+0.028*[#  19]+0.028*[#  22]+
    |psi|^2 = 1.000
==== e(  22) =     6.70334 eV ==== 
     psi = 0.065*[#   2]+0.065*[#   3]+0.065*[#   5]+0.065*[#   8]+0.065*[#   9]+
          +0.065*[#  11]+0.065*[#  14]+0.065*[#  15]+0.065*[#  17]+0.065*[#  20]+
          +0.065*[#  21]+0.065*[#  23]+0.028*[#   1]+0.028*[#   4]+0.028*[#   7]+
          +0.028*[#  10]+0.028*[#  13]+0.028*[#  16]+0.028*[#  19]+0.028*[#  22]+
    |psi|^2 = 1.000
==== e(  23) =     6.95052 eV ==== 
     psi = 0.051*[#   2]+0.051*[#   3]+0.051*[#   5]+0.051*[#   8]+0.051*[#   9]+
          +0.051*[#  11]+0.051*[#  14]+0.051*[#  15]+0.051*[#  17]+0.051*[#  20]+
          +0.051*[#  21]+0.051*[#  23]+0.049*[#   1]+0.049*[#   4]+0.049*[#   7]+
          +0.049*[#  10]+0.049*[#  13]+0.049*[#  16]+0.049*[#  19]+0.049*[#  22]+
    |psi|^2 = 1.000
==== e(  24) =     6.95052 eV ==== 
     psi = 0.051*[#   2]+0.051*[#   3]+0.051*[#   5]+0.051*[#   8]+0.051*[#   9]+
          +0.051*[#  11]+0.051*[#  14]+0.051*[#  15]+0.051*[#  17]+0.051*[#  20]+
          +0.051*[#  21]+0.051*[#  23]+0.049*[#   1]+0.049*[#   4]+0.049*[#   7]+
          +0.049*[#  10]+0.049*[#  13]+0.049*[#  16]+0.049*[#  19]+0.049*[#  22]+
    |psi|^2 = 1.000
==== e(  25) =     7.40395 eV ==== 
     psi = 0.076*[#   2]+0.076*[#   3]+0.076*[#   5]+0.076*[#   8]+0.076*[#   9]+
          +0.076*[#  11]+0.076*[#  14]+0.076*[#  15]+0.076*[#  17]+0.076*[#  20]+
          +0.076*[#  21]+0.076*[#  23]+0.022*[#  25]+0.022*[#  29]+0.011*[#   6]+
          +0.011*[#  12]+0.011*[#  18]+0.011*[#  24]+
    |psi|^2 = 0.997
==== e(  26) =     7.89978 eV ==== 
     psi = 0.058*[#   2]+0.058*[#   3]+0.058*[#   5]+0.058*[#   8]+0.058*[#   9]+
          +0.058*[#  11]+0.058*[#  14]+0.058*[#  15]+0.058*[#  17]+0.058*[#  20]+
          +0.058*[#  21]+0.058*[#  23]+0.038*[#   6]+0.038*[#  12]+0.038*[#  18]+
          +0.038*[#  24]+0.021*[#  26]+0.021*[#  27]+0.021*[#  28]+0.021*[#  30]+
          +0.021*[#  31]+0.021*[#  32]+0.003*[#   1]+0.003*[#   4]+0.003*[#   7]+
          +0.003*[#  10]+0.003*[#  13]+0.003*[#  16]+0.003*[#  19]+0.003*[#  22]+
    |psi|^2 = 0.998
==== e(  27) =     7.89978 eV ==== 
     psi = 0.058*[#   2]+0.058*[#   3]+0.058*[#   5]+0.058*[#   8]+0.058*[#   9]+
          +0.058*[#  11]+0.058*[#  14]+0.058*[#  15]+0.058*[#  17]+0.058*[#  20]+
          +0.058*[#  21]+0.058*[#  23]+0.038*[#   6]+0.038*[#  12]+0.038*[#  18]+
          +0.038*[#  24]+0.021*[#  26]+0.021*[#  27]+0.021*[#  28]+0.021*[#  30]+
          +0.021*[#  31]+0.021*[#  32]+0.003*[#   1]+0.003*[#   4]+0.003*[#   7]+
          +0.003*[#  10]+0.003*[#  13]+0.003*[#  16]+0.003*[#  19]+0.003*[#  22]+
    |psi|^2 = 0.998
==== e(  28) =     7.89978 eV ==== 
     psi = 0.058*[#   2]+0.058*[#   3]+0.058*[#   5]+0.058*[#   8]+0.058*[#   9]+
          +0.058*[#  11]+0.058*[#  14]+0.058*[#  15]+0.058*[#  17]+0.058*[#  20]+
          +0.058*[#  21]+0.058*[#  23]+0.038*[#   6]+0.038*[#  12]+0.038*[#  18]+
          +0.038*[#  24]+0.021*[#  26]+0.021*[#  27]+0.021*[#  28]+0.021*[#  30]+
          +0.021*[#  31]+0.021*[#  32]+0.003*[#   1]+0.003*[#   4]+0.003*[#   7]+
          +0.003*[#  10]+0.003*[#  13]+0.003*[#  16]+0.003*[#  19]+0.003*[#  22]+
    |psi|^2 = 0.998
==== e(  29) =    11.06773 eV ==== 
     psi = 0.009*[#  26]+0.009*[#  27]+0.009*[#  28]+0.009*[#  30]+0.009*[#  31]+
          +0.009*[#  32]+
    |psi|^2 = 0.056
==== e(  30) =    11.06773 eV ==== 
     psi = 0.009*[#  26]+0.009*[#  27]+0.009*[#  28]+0.009*[#  30]+0.009*[#  31]+
          +0.009*[#  32]+
    |psi|^2 = 0.056
==== e(  31) =    11.06773 eV ==== 
     psi = 0.009*[#  26]+0.009*[#  27]+0.009*[#  28]+0.009*[#  30]+0.009*[#  31]+
          +0.009*[#  32]+
    |psi|^2 = 0.056
==== e(  32) =    13.23347 eV ==== 
     psi = 0.158*[#   6]+0.158*[#  12]+0.158*[#  18]+0.158*[#  24]+0.035*[#  26]+
          +0.035*[#  27]+0.035*[#  28]+0.035*[#  30]+0.035*[#  31]+0.035*[#  32]+
          +0.009*[#   2]+0.009*[#   3]+0.009*[#   5]+0.009*[#   8]+0.009*[#   9]+
          +0.009*[#  11]+0.009*[#  14]+0.009*[#  15]+0.009*[#  17]+0.009*[#  20]+
          +0.009*[#  21]+0.009*[#  23]+0.003*[#   1]+0.003*[#   4]+0.003*[#   7]+
          +0.003*[#  10]+0.003*[#  13]+0.003*[#  16]+0.003*[#  19]+0.003*[#  22]+
    |psi|^2 = 0.971

Lowdin Charges: 

     Atom #   1: total charge =  10.3966, s =  0.7374, p =  0.0000, d =  9.6592, 
     Atom #   2: total charge =  10.3966, s =  0.7374, p =  0.0000, d =  9.6592, 
     Atom #   3: total charge =  10.3966, s =  0.7374, p =  0.0000, d =  9.6592, 
     Atom #   4: total charge =  10.3966, s =  0.7374, p =  0.0000, d =  9.6592, 
     Atom #   5: total charge =   7.0441, s =  1.7964, p =  5.2478, d =  0.0000, 
     Atom #   6: total charge =   7.0441, s =  1.7963, p =  5.2478, d =  0.0000, 
     Spilling Parameter:   0.0058
