
     Program PWSCF v.5.0        starts on 17Jun2012 at 21: 7:41 

     This program is part of the open-source Quantum ESPRESSO suite
     for quantum simulation of materials; please cite
         "P. Giannozzi et al., J. Phys.:Condens. Matter 21 395502 (2009);
          URL http://www.quantum-espresso.org", 
     in publications or presentations arising from this work. More details at
     http://www.quantum-espresso.org/quote.php

     Parallel version (MPI), running on     4 processors
     K-points division:     npool     =    4

     Current dimensions of program PWSCF are:
     Max number of different atomic species (ntypx) = 10
     Max number of k-points (npk) =  40000
     Max angular momentum in pseudopotentials (lmaxx) =  3
     Waiting for input...
     Reading input from standard input
               file O.pbe-rrkjus.UPF: wavefunction(s)  2S renormalized

     Subspace diagonalization in iterative solution of the eigenvalue problem:
     a serial algorithm will be used

 
     G-vector sticks info
     --------------------
     sticks:   dense  smooth     PW     G-vecs:    dense   smooth      PW
     Sum        1609     641    185                48501    12197    1863
 


     bravais-lattice index     =            1
     lattice parameter (alat)  =       8.2100  a.u.
     unit-cell volume          =     553.3877 (a.u.)^3
     number of atoms/cell      =            6
     number of atomic types    =            2
     number of electrons       =        56.00
     number of Kohn-Sham states=           28
     kinetic-energy cutoff     =      30.0000  Ry
     charge density cutoff     =     300.0000  Ry
     convergence threshold     =      1.0E-06
     mixing beta               =       0.3000
     number of iterations used =            8  plain     mixing
     Exchange-correlation      =  SLA  PW   PBE  PBE ( 1 4 3 4 0)
     EXX-fraction              =        0.00

     celldm(1)=   8.210000  celldm(2)=   0.000000  celldm(3)=   0.000000
     celldm(4)=   0.000000  celldm(5)=   0.000000  celldm(6)=   0.000000

     crystal axes: (cart. coord. in units of alat)
               a(1) = (   1.000000   0.000000   0.000000 )  
               a(2) = (   0.000000   1.000000   0.000000 )  
               a(3) = (   0.000000   0.000000   1.000000 )  

     reciprocal axes: (cart. coord. in units 2 pi/alat)
               b(1) = (  1.000000  0.000000  0.000000 )  
               b(2) = (  0.000000  1.000000  0.000000 )  
               b(3) = (  0.000000  0.000000  1.000000 )  


     PseudoPot. # 1 for Cu read from file:
     ../pseudo/Cu.pbe-d-rrkjus.UPF
     MD5 check sum: 855c9c66b119533e70b4be5d3ca221fe
     Pseudo is Ultrasoft, Zval = 11.0
     Generated by new atomic code, or converted to UPF format
     Using radial grid of  899 points,  3 beta functions with: 
                l(1) =   2
                l(2) =   2
                l(3) =   1
     Q(r) pseudized with 0 coefficients 


     PseudoPot. # 2 for O  read from file:
     ../pseudo/O.pbe-rrkjus.UPF
     MD5 check sum: 390ba29e75625707450f3bd3f0eb6be9
     Pseudo is Ultrasoft, Zval =  6.0
     Generated by new atomic code, or converted to UPF format
     Using radial grid of 1269 points,  4 beta functions with: 
                l(1) =   0
                l(2) =   0
                l(3) =   1
                l(4) =   1
     Q(r) pseudized with 0 coefficients 


     atomic species   valence    mass     pseudopotential
        Cu            11.00     1.00000     Cu( 1.00)
        O              6.00     1.00000     O ( 1.00)
 -----
     simplified LDA+U calculation, Hubbard_lmax = 2
     atomic species  L   Hubbard U  Hubbard alpha
        Cu           2    0.000000    0.000000
        O            1    0.000000    0.000000
 -----

     24 Sym. Ops. (no inversion) found
          (note: 24 additional sym.ops. were found but ignored
           their fractional transations are incommensurate with FFT grid)


   Cartesian axes

     site n.     atom                  positions (alat units)
         1           Cu  tau(   1) = (   0.2500000   0.2500000   0.2500000  )
         2           Cu  tau(   2) = (   0.7500000   0.2500000   0.7500000  )
         3           Cu  tau(   3) = (   0.7500000   0.7500000   0.2500000  )
         4           Cu  tau(   4) = (   0.2500000   0.7500000   0.7500000  )
         5           O   tau(   5) = (   0.0000000   0.0000000   0.0000000  )
         6           O   tau(   6) = (   0.5000000   0.5000000   0.5000000  )

     number of k points=    10
                       cart. coord. in units 2pi/alat
        k(    1) = (   0.0000000   0.0000000   0.0000000), wk =   0.0312500
        k(    2) = (   0.0000000   0.0000000   0.2500000), wk =   0.1875000
        k(    3) = (   0.0000000   0.0000000  -0.5000000), wk =   0.0937500
        k(    4) = (   0.0000000   0.2500000   0.2500000), wk =   0.3750000
        k(    5) = (   0.0000000   0.2500000  -0.5000000), wk =   0.3750000
        k(    6) = (   0.0000000  -0.5000000  -0.5000000), wk =   0.0937500
        k(    7) = (   0.2500000   0.2500000   0.2500000), wk =   0.2500000
        k(    8) = (   0.2500000   0.2500000  -0.5000000), wk =   0.3750000
        k(    9) = (   0.2500000  -0.5000000  -0.5000000), wk =   0.1875000
        k(   10) = (  -0.5000000  -0.5000000  -0.5000000), wk =   0.0312500

     Dense  grid:    48501 G-vectors     FFT dimensions: (  45,  45,  45)

     Smooth grid:    12197 G-vectors     FFT dimensions: (  30,  30,  30)

     Largest allocated arrays     est. size (Mb)     dimensions
        Kohn-Sham Wavefunctions         0.67 Mb     (   1568,   28)
        Atomic wavefunctions            0.77 Mb     (   1568,   32)
        NL pseudopotentials             1.63 Mb     (   1568,   68)
        Each V/rho on FFT grid          1.39 Mb     (  91125)
        Each G-vector array             0.37 Mb     (  48501)
        G-vector shells                 0.00 Mb     (    428)
     Largest temporary arrays     est. size (Mb)     dimensions
        Auxiliary wavefunctions         2.68 Mb     (   1568,  112)
        Each subspace H/S matrix        0.19 Mb     ( 112, 112)
        Each <psi_i|beta_j> matrix      0.03 Mb     (     68,   28)
        Arrays for rho mixing          11.12 Mb     (  91125,   8)

     Initial potential from superposition of free atoms

     starting charge   55.99824, renormalised to   56.00000
     Number of +U iterations with fixed ns =  0
     Starting occupations:
 --- enter write_ns ---
 LDA+U parameters:
U( 1)     =  0.00000000
alpha( 1) =  0.00000000
U( 2)     =  0.00000000
alpha( 2) =  0.00000000
atom    1   Tr[ns(na)] =  10.00000
    eigenvalues: 
  1.000  1.000  1.000  1.000  1.000
    eigenvectors:
  1.000  0.000  0.000  0.000  0.000
  0.000  1.000  0.000  0.000  0.000
  0.000  0.000  1.000  0.000  0.000
  0.000  0.000  0.000  1.000  0.000
  0.000  0.000  0.000  0.000  1.000
    occupations:
  1.000  0.000  0.000  0.000  0.000
  0.000  1.000  0.000  0.000  0.000
  0.000  0.000  1.000  0.000  0.000
  0.000  0.000  0.000  1.000  0.000
  0.000  0.000  0.000  0.000  1.000
atom    2   Tr[ns(na)] =  10.00000
    eigenvalues: 
  1.000  1.000  1.000  1.000  1.000
    eigenvectors:
  1.000  0.000  0.000  0.000  0.000
  0.000  1.000  0.000  0.000  0.000
  0.000  0.000  1.000  0.000  0.000
  0.000  0.000  0.000  1.000  0.000
  0.000  0.000  0.000  0.000  1.000
    occupations:
  1.000  0.000  0.000  0.000  0.000
  0.000  1.000  0.000  0.000  0.000
  0.000  0.000  1.000  0.000  0.000
  0.000  0.000  0.000  1.000  0.000
  0.000  0.000  0.000  0.000  1.000
atom    3   Tr[ns(na)] =  10.00000
    eigenvalues: 
  1.000  1.000  1.000  1.000  1.000
    eigenvectors:
  1.000  0.000  0.000  0.000  0.000
  0.000  1.000  0.000  0.000  0.000
  0.000  0.000  1.000  0.000  0.000
  0.000  0.000  0.000  1.000  0.000
  0.000  0.000  0.000  0.000  1.000
    occupations:
  1.000  0.000  0.000  0.000  0.000
  0.000  1.000  0.000  0.000  0.000
  0.000  0.000  1.000  0.000  0.000
  0.000  0.000  0.000  1.000  0.000
  0.000  0.000  0.000  0.000  1.000
atom    4   Tr[ns(na)] =  10.00000
    eigenvalues: 
  1.000  1.000  1.000  1.000  1.000
    eigenvectors:
  1.000  0.000  0.000  0.000  0.000
  0.000  1.000  0.000  0.000  0.000
  0.000  0.000  1.000  0.000  0.000
  0.000  0.000  0.000  1.000  0.000
  0.000  0.000  0.000  0.000  1.000
    occupations:
  1.000  0.000  0.000  0.000  0.000
  0.000  1.000  0.000  0.000  0.000
  0.000  0.000  1.000  0.000  0.000
  0.000  0.000  0.000  1.000  0.000
  0.000  0.000  0.000  0.000  1.000
atom    5   Tr[ns(na)] =   4.00000
    eigenvalues: 
  0.667  0.667  0.667
    eigenvectors:
  1.000  0.000  0.000
  0.000  1.000  0.000
  0.000  0.000  1.000
    occupations:
  0.667  0.000  0.000
  0.000  0.667  0.000
  0.000  0.000  0.667
atom    6   Tr[ns(na)] =   4.00000
    eigenvalues: 
  0.667  0.667  0.667
    eigenvectors:
  1.000  0.000  0.000
  0.000  1.000  0.000
  0.000  0.000  1.000
    occupations:
  0.667  0.000  0.000
  0.000  0.667  0.000
  0.000  0.000  0.667
N of occupied +U levels =  48.0000000
 --- exit write_ns ---
 Atomic wfc used for LDA+U Projector are NOT orthogonalized
     Starting wfc are   32 randomized atomic wfcs

     total cpu time spent up to now is        2.1 secs

     per-process dynamical memory:    25.7 Mb

     Self-consistent Calculation

     iteration #  1     ecut=    30.00 Ry     beta=0.30
     Davidson diagonalization with overlap
     ethr =  1.00E-02,  avg # of iterations =  2.0
 --- enter write_ns ---
 LDA+U parameters:
U( 1)     =  0.00000000
alpha( 1) =  0.00000000
U( 2)     =  0.00000000
alpha( 2) =  0.00000000
atom    1   Tr[ns(na)] =   9.56382
    eigenvalues: 
  0.813  0.989  0.989  0.995  0.995
    eigenvectors:
  0.000  0.141  0.081  0.460  0.317
  0.333  0.441  0.078  0.004  0.144
  0.333  0.008  0.510  0.130  0.018
  0.000  0.081  0.141  0.317  0.460
  0.333  0.329  0.190  0.088  0.060
    occupations:
  0.994 -0.001 -0.001  0.000 -0.002
 -0.001  0.931 -0.059 -0.002  0.059
 -0.001 -0.059  0.931  0.002  0.059
  0.000 -0.002  0.002  0.994  0.000
 -0.002  0.059  0.059  0.000  0.931
atom    2   Tr[ns(na)] =   9.56382
    eigenvalues: 
  0.813  0.989  0.989  0.995  0.995
    eigenvectors:
  0.000  0.215  0.007  0.014  0.764
  0.333  0.218  0.301  0.127  0.021
  0.333  0.059  0.460  0.093  0.055
  0.000  0.007  0.215  0.764  0.014
  0.333  0.502  0.017  0.003  0.145
    occupations:
  0.994 -0.001  0.001  0.000  0.002
 -0.001  0.931  0.059 -0.002 -0.059
  0.001  0.059  0.931 -0.002  0.059
  0.000 -0.002 -0.002  0.994  0.000
  0.002 -0.059  0.059  0.000  0.931
atom    3   Tr[ns(na)] =   9.56382
    eigenvalues: 
  0.813  0.989  0.989  0.995  0.995
    eigenvectors:
  0.000  0.189  0.033  0.651  0.127
  0.333  0.328  0.191  0.002  0.146
  0.333  0.009  0.510  0.096  0.052
  0.000  0.033  0.189  0.127  0.651
  0.333  0.442  0.077  0.124  0.024
    occupations:
  0.994  0.001  0.001  0.000 -0.002
  0.001  0.931 -0.059  0.002 -0.059
  0.001 -0.059  0.931 -0.002 -0.059
  0.000  0.002 -0.002  0.994  0.000
 -0.002 -0.059 -0.059  0.000  0.931
atom    4   Tr[ns(na)] =   9.56382
    eigenvalues: 
  0.813  0.989  0.989  0.995  0.995
    eigenvectors:
  0.000  0.090  0.132  0.524  0.254
  0.333  0.063  0.456  0.121  0.027
  0.333  0.504  0.015  0.001  0.147
  0.000  0.132  0.090  0.254  0.524
  0.333  0.211  0.307  0.100  0.048
    occupations:
  0.994  0.001 -0.001  0.000  0.002
  0.001  0.931  0.059  0.002  0.059
 -0.001  0.059  0.931  0.002 -0.059
  0.000  0.002  0.002  0.994  0.000
  0.002  0.059 -0.059  0.000  0.931
atom    5   Tr[ns(na)] =   5.97989
    eigenvalues: 
  0.997  0.997  0.997
    eigenvectors:
  0.144  0.324  0.533
  0.524  0.096  0.380
  0.332  0.581  0.087
    occupations:
  0.997  0.000  0.000
  0.000  0.997  0.000
  0.000  0.000  0.997
atom    6   Tr[ns(na)] =   5.98005
    eigenvalues: 
  0.997  0.997  0.997
    eigenvectors:
  0.139  0.265  0.596
  0.690  0.034  0.275
  0.171  0.701  0.129
    occupations:
  0.997  0.000  0.000
  0.000  0.997  0.000
  0.000  0.000  0.997
N of occupied +U levels =  50.2151971
 --- exit write_ns ---

     total cpu time spent up to now is        3.9 secs

     total energy              =    -413.84810758 Ry
     Harris-Foulkes estimate   =    -414.66024887 Ry
     estimated scf accuracy    <       1.80039152 Ry

     iteration #  2     ecut=    30.00 Ry     beta=0.30
     Davidson diagonalization with overlap
     ethr =  3.21E-03,  avg # of iterations =  2.9

     total cpu time spent up to now is        5.9 secs

     total energy              =    -414.24992027 Ry
     Harris-Foulkes estimate   =    -414.26317964 Ry
     estimated scf accuracy    <       0.05180291 Ry

     iteration #  3     ecut=    30.00 Ry     beta=0.30
     Davidson diagonalization with overlap
     ethr =  9.25E-05,  avg # of iterations =  2.1

     total cpu time spent up to now is        7.7 secs

     total energy              =    -414.25575514 Ry
     Harris-Foulkes estimate   =    -414.25786520 Ry
     estimated scf accuracy    <       0.01178087 Ry

     iteration #  4     ecut=    30.00 Ry     beta=0.30
     Davidson diagonalization with overlap
     ethr =  2.10E-05,  avg # of iterations =  1.8

     total cpu time spent up to now is        9.5 secs

     total energy              =    -414.25608921 Ry
     Harris-Foulkes estimate   =    -414.25621987 Ry
     estimated scf accuracy    <       0.00116541 Ry

     iteration #  5     ecut=    30.00 Ry     beta=0.30
     Davidson diagonalization with overlap
     ethr =  2.08E-06,  avg # of iterations =  2.1

     total cpu time spent up to now is       11.2 secs

     total energy              =    -414.25613443 Ry
     Harris-Foulkes estimate   =    -414.25618033 Ry
     estimated scf accuracy    <       0.00009473 Ry

     iteration #  6     ecut=    30.00 Ry     beta=0.30
     Davidson diagonalization with overlap
     ethr =  1.69E-07,  avg # of iterations =  3.3

     total cpu time spent up to now is       13.3 secs

     total energy              =    -414.25614245 Ry
     Harris-Foulkes estimate   =    -414.25625851 Ry
     estimated scf accuracy    <       0.00033694 Ry

     iteration #  7     ecut=    30.00 Ry     beta=0.30
     Davidson diagonalization with overlap
     ethr =  1.69E-07,  avg # of iterations =  3.0

     total cpu time spent up to now is       15.3 secs

     total energy              =    -414.25618347 Ry
     Harris-Foulkes estimate   =    -414.25618481 Ry
     estimated scf accuracy    <       0.00000829 Ry

     iteration #  8     ecut=    30.00 Ry     beta=0.30
     Davidson diagonalization with overlap
     ethr =  1.48E-08,  avg # of iterations =  2.5

     total cpu time spent up to now is       17.1 secs

     End of self-consistent calculation
 --- enter write_ns ---
 LDA+U parameters:
U( 1)     =  0.00000000
alpha( 1) =  0.00000000
U( 2)     =  0.00000000
alpha( 2) =  0.00000000
atom    1   Tr[ns(na)] =   9.77643
    eigenvalues: 
  0.903  0.996  0.996  0.997  0.997
    eigenvectors:
  0.000  0.224  0.214  0.261  0.301
  0.333  0.023  0.352  0.277  0.015
  0.333  0.348  0.027  0.025  0.267
  0.000  0.214  0.224  0.301  0.261
  0.333  0.191  0.183  0.136  0.156
    occupations:
  0.996  0.000  0.000  0.000  0.001
  0.000  0.965 -0.031  0.000  0.031
  0.000 -0.031  0.965  0.000  0.031
  0.000  0.000  0.000  0.996  0.000
  0.001  0.031  0.031  0.000  0.965
atom    2   Tr[ns(na)] =   9.77643
    eigenvalues: 
  0.903  0.996  0.996  0.997  0.997
    eigenvectors:
  0.000  0.027  0.411  0.558  0.004
  0.333  0.348  0.027  0.053  0.239
  0.333  0.191  0.183  0.095  0.196
  0.000  0.411  0.027  0.004  0.558
  0.333  0.023  0.352  0.290  0.002
    occupations:
  0.996  0.000  0.000  0.000 -0.001
  0.000  0.965  0.031  0.000 -0.031
  0.000  0.031  0.965  0.000  0.031
  0.000  0.000  0.000  0.996  0.000
 -0.001 -0.031  0.031  0.000  0.965
atom    3   Tr[ns(na)] =   9.77643
    eigenvalues: 
  0.903  0.996  0.996  0.997  0.997
    eigenvectors:
  0.000  0.385  0.053  0.182  0.380
  0.333  0.010  0.364  0.290  0.002
  0.333  0.222  0.152  0.054  0.238
  0.000  0.053  0.385  0.380  0.182
  0.333  0.329  0.045  0.094  0.198
    occupations:
  0.996  0.000  0.000  0.000  0.001
  0.000  0.965 -0.031  0.000 -0.031
  0.000 -0.031  0.965  0.000 -0.031
  0.000  0.000  0.000  0.996  0.000
  0.001 -0.031 -0.031  0.000  0.965
atom    4   Tr[ns(na)] =   9.77643
    eigenvalues: 
  0.903  0.996  0.996  0.997  0.997
    eigenvectors:
  0.000  0.304  0.134  0.235  0.327
  0.333  0.300  0.074  0.033  0.259
  0.333  0.001  0.373  0.283  0.009
  0.000  0.134  0.304  0.327  0.235
  0.333  0.260  0.115  0.122  0.170
    occupations:
  0.996  0.000  0.000  0.000 -0.001
  0.000  0.965  0.031  0.000  0.031
  0.000  0.031  0.965  0.000 -0.031
  0.000  0.000  0.000  0.996  0.000
 -0.001  0.031 -0.031  0.000  0.965
atom    5   Tr[ns(na)] =   5.74448
    eigenvalues: 
  0.957  0.957  0.957
    eigenvectors:
  0.279  0.193  0.528
  0.673  0.002  0.325
  0.048  0.805  0.147
    occupations:
  0.957  0.000  0.000
  0.000  0.957  0.000
  0.000  0.000  0.957
atom    6   Tr[ns(na)] =   5.74452
    eigenvalues: 
  0.957  0.957  0.957
    eigenvectors:
  0.203  0.219  0.578
  0.678  0.012  0.309
  0.118  0.769  0.113
    occupations:
  0.957  0.000  0.000
  0.000  0.957  0.000
  0.000  0.000  0.957
N of occupied +U levels =  50.5947309
 --- exit write_ns ---

          k = 0.0000 0.0000 0.0000 (  1551 PWs)   bands (ev):

   -11.0898 -10.4484   1.7613   1.7613   1.7613   3.9954   4.0911   4.0911
     4.0911   5.6248   5.6248   5.7456   5.7456   5.7456   6.5155   6.5155
     6.6312   6.6312   6.6312   6.6747   6.6747   6.6747   6.9949   6.9949
     6.9949   8.4054   8.4054   8.4054

          k = 0.0000 0.0000 0.2500 (  1526 PWs)   bands (ev):

   -10.9940 -10.5399   1.9127   1.9727   1.9727   3.2152   3.5875   3.5875
     4.6035   5.7267   5.7414   5.9143   6.0948   6.0948   6.4854   6.4921
     6.5208   6.5547   6.6257   6.6257   6.7972   6.8819   6.8819   6.9394
     6.9394   7.2064   8.2720   8.2720

          k = 0.0000 0.0000-0.5000 (  1510 PWs)   bands (ev):

   -10.7657 -10.7641   2.3433   2.3433   2.4005   2.4005   3.0147   3.0147
     5.3200   5.3200   6.0381   6.0382   6.2527   6.2527   6.4548   6.4548
     6.4681   6.4681   6.4870   6.4870   6.6542   6.6542   6.8647   6.8647
     7.2418   7.2418   8.0567   8.0567

          k = 0.0000 0.2500 0.2500 (  1554 PWs)   bands (ev):

   -10.9222 -10.6004   1.7248   2.0792   2.4248   2.6825   3.3353   3.6530
     4.8281   5.7840   5.8235   6.0312   6.0547   6.2590   6.4218   6.4391
     6.4452   6.5236   6.5401   6.7151   6.7701   6.8104   6.8239   6.9560
     6.9884   7.2680   7.8914   8.1549

          k = 0.0000 0.2500-0.5000 (  1526 PWs)   bands (ev):

   -10.7563 -10.7547   1.8827   1.8828   2.6895   2.6895   3.1929   3.1929
     5.4645   5.4645   5.9755   5.9755   6.2350   6.2350   6.3019   6.3019
     6.4408   6.4408   6.6567   6.6567   6.6904   6.6904   6.9327   6.9327
     7.1967   7.1967   7.9218   7.9218

          k = 0.0000-0.5000-0.5000 (  1516 PWs)   bands (ev):

   -10.7468 -10.7453   1.6690   1.6690   2.7426   2.7426   3.3500   3.3500
     5.6737   5.6737   5.8833   5.8833   6.2974   6.2974   6.3050   6.3050
     6.3711   6.3711   6.6190   6.6190   6.6813   6.6813   6.9906   6.9906
     7.2269   7.2269   7.8163   7.8163

          k = 0.2500 0.2500 0.2500 (  1550 PWs)   bands (ev):

   -10.8888 -10.6181   1.8825   1.8825   2.2715   2.8226   3.4083   3.4083
     5.0337   5.7580   5.7580   6.1791   6.1791   6.2263   6.3565   6.3565
     6.4604   6.4604   6.5617   6.7608   6.7608   6.7649   6.8607   6.8607
     6.9865   7.6278   7.6278   7.9570

          k = 0.2500 0.2500-0.5000 (  1528 PWs)   bands (ev):

   -10.8490 -10.6421   1.7843   2.0216   2.0947   3.1248   3.1767   3.2643
     5.4175   5.5577   5.7609   6.1025   6.1422   6.2808   6.3367   6.3654
     6.4202   6.4625   6.6113   6.7162   6.7571   6.7883   6.8107   6.9236
     7.2191   7.3805   7.7345   7.8980

          k = 0.2500-0.5000-0.5000 (  1540 PWs)   bands (ev):

   -10.8825 -10.5887   1.7605   1.7605   2.1571   3.1326   3.3020   3.3020
     5.5506   5.5506   5.5569   6.0776   6.0919   6.3204   6.3204   6.3731
     6.5148   6.5148   6.5637   6.6347   6.8131   6.8131   6.8361   6.8672
     7.5271   7.5271   7.5611   7.8802

          k =-0.5000-0.5000-0.5000 (  1568 PWs)   bands (ev):

   -10.9336 -10.5166   1.8571   1.8571   1.8571   3.2589   3.2589   3.2589
     5.4636   5.4636   5.4636   6.0032   6.0032   6.3197   6.3197   6.3197
     6.5705   6.5705   6.5705   6.7032   6.7032   6.7032   6.9505   6.9505
     7.4036   7.8999   7.8999   7.8999

!    total energy              =    -414.25618636 Ry
     Harris-Foulkes estimate   =    -414.25618485 Ry
     estimated scf accuracy    <       0.00000010 Ry

     The total energy is the sum of the following terms:

     one-electron contribution =    -140.73790134 Ry
     hartree contribution      =     126.00149069 Ry
     xc contribution           =     -71.52840563 Ry
     ewald contribution        =    -327.99137008 Ry
     Hubbard energy            =       0.00000000 Ry

     convergence has been achieved in   8 iterations

     Writing output data file cu2o.save
 
     init_run     :      1.85s CPU      2.00s WALL (       1 calls)
     electrons    :     13.40s CPU     15.07s WALL (       1 calls)

     Called by init_run:
     wfcinit      :      0.25s CPU      0.27s WALL (       1 calls)
     potinit      :      0.15s CPU      0.18s WALL (       1 calls)

     Called by electrons:
     c_bands      :      4.72s CPU      5.00s WALL (       8 calls)
     sum_band     :      3.95s CPU      4.24s WALL (       8 calls)
     v_of_rho     :      0.96s CPU      1.10s WALL (       9 calls)
     newd         :      4.00s CPU      4.93s WALL (       9 calls)
     mix_rho      :      0.13s CPU      0.14s WALL (       8 calls)

     Called by c_bands:
     init_us_2    :      0.09s CPU      0.09s WALL (      54 calls)
     cegterg      :      4.38s CPU      4.63s WALL (      24 calls)

     Called by *egterg:
     h_psi        :      3.49s CPU      3.52s WALL (      88 calls)
     s_psi        :      0.22s CPU      0.21s WALL (      91 calls)
     g_psi        :      0.04s CPU      0.04s WALL (      61 calls)
     cdiaghg      :      0.22s CPU      0.23s WALL (      85 calls)

     Called by h_psi:
     add_vuspsi   :      0.21s CPU      0.20s WALL (      88 calls)

     General routines
     calbec       :      0.43s CPU      0.43s WALL (     227 calls)
     fft          :      0.65s CPU      0.76s WALL (     139 calls)
     ffts         :      0.02s CPU      0.02s WALL (      17 calls)
     fftw         :      2.66s CPU      2.74s WALL (    4320 calls)
     interpolate  :      0.08s CPU      0.16s WALL (      17 calls)
     davcio       :      0.01s CPU      0.12s WALL (     156 calls)
 
     Parallel routines
     fft_scatter  :      0.24s CPU      0.28s WALL (    4476 calls)
     EXX routines
 
     PWSCF        :    15.40s CPU        17.26s WALL

 
   This run was terminated on:  21: 7:58  17Jun2012            

=------------------------------------------------------------------------------=
   JOB DONE.
=------------------------------------------------------------------------------=
