
     Program PWSCF v.5.0        starts on 17Jun2012 at 12: 0:35 

     This program is part of the open-source Quantum ESPRESSO suite
     for quantum simulation of materials; please cite
         "P. Giannozzi et al., J. Phys.:Condens. Matter 21 395502 (2009);
          URL http://www.quantum-espresso.org", 
     in publications or presentations arising from this work. More details at
     http://www.quantum-espresso.org/quote.php

     Parallel version (MPI), running on     4 processors
     K-points division:     npool     =    4

     Current dimensions of program PWSCF are:
     Max number of different atomic species (ntypx) = 10
     Max number of k-points (npk) =  40000
     Max angular momentum in pseudopotentials (lmaxx) =  3
     Waiting for input...
     Reading input from standard input
               file Ni.pbe-nd-rrkjus.UPF: wavefunction(s)  4S renormalized
               file Ni.pbe-nd-rrkjus.UPF: wavefunction(s)  4S renormalized
               file Ni.pbe-nd-rrkjus.UPF: wavefunction(s)  4S renormalized
               file O.pbe-rrkjus.UPF: wavefunction(s)  2S renormalized

     Subspace diagonalization in iterative solution of the eigenvalue problem:
     a serial algorithm will be used

 
     G-vector sticks info
     --------------------
     sticks:   dense  smooth     PW     G-vecs:    dense   smooth      PW
     Sum        2587    1039    295                86547    22075    3287
 


     bravais-lattice index     =            0
     lattice parameter (alat)  =       7.9000  a.u.
     unit-cell volume          =     986.0780 (a.u.)^3
     number of atoms/cell      =           16
     number of atomic types    =            4
     number of electrons       =       128.00
     number of Kohn-Sham states=           77
     kinetic-energy cutoff     =      30.0000  Ry
     charge density cutoff     =     300.0000  Ry
     convergence threshold     =      1.0E-08
     mixing beta               =       0.3000
     number of iterations used =            8  plain     mixing
     Exchange-correlation      =  SLA  PW   PBE  PBE ( 1 4 3 4 0)
     EXX-fraction              =        0.00

     celldm(1)=   7.900000  celldm(2)=   0.000000  celldm(3)=   0.000000
     celldm(4)=   0.000000  celldm(5)=   0.000000  celldm(6)=   0.000000

     crystal axes: (cart. coord. in units of alat)
               a(1) = (   1.000000   1.000000   0.000000 )  
               a(2) = (   1.000000   0.000000   1.000000 )  
               a(3) = (   0.000000   1.000000   1.000000 )  

     reciprocal axes: (cart. coord. in units 2 pi/alat)
               b(1) = (  0.500000  0.500000 -0.500000 )  
               b(2) = (  0.500000 -0.500000  0.500000 )  
               b(3) = ( -0.500000  0.500000  0.500000 )  


     PseudoPot. # 1 for Ni read from file:
     ../pseudo/Ni.pbe-nd-rrkjus.UPF
     MD5 check sum: 8081f0a005c9a5470caab1a58e82ecb2
     Pseudo is Ultrasoft + core correction, Zval = 10.0
     Generated by new atomic code, or converted to UPF format
     Using radial grid of 1203 points,  6 beta functions with: 
                l(1) =   0
                l(2) =   0
                l(3) =   1
                l(4) =   1
                l(5) =   2
                l(6) =   2
     Q(r) pseudized with 0 coefficients 


     PseudoPot. # 2 for Ni read from file:
     ../pseudo/Ni.pbe-nd-rrkjus.UPF
     MD5 check sum: 8081f0a005c9a5470caab1a58e82ecb2
     Pseudo is Ultrasoft + core correction, Zval = 10.0
     Generated by new atomic code, or converted to UPF format
     Using radial grid of 1203 points,  6 beta functions with: 
                l(1) =   0
                l(2) =   0
                l(3) =   1
                l(4) =   1
                l(5) =   2
                l(6) =   2
     Q(r) pseudized with 0 coefficients 


     PseudoPot. # 3 for Ni read from file:
     ../pseudo/Ni.pbe-nd-rrkjus.UPF
     MD5 check sum: 8081f0a005c9a5470caab1a58e82ecb2
     Pseudo is Ultrasoft + core correction, Zval = 10.0
     Generated by new atomic code, or converted to UPF format
     Using radial grid of 1203 points,  6 beta functions with: 
                l(1) =   0
                l(2) =   0
                l(3) =   1
                l(4) =   1
                l(5) =   2
                l(6) =   2
     Q(r) pseudized with 0 coefficients 


     PseudoPot. # 4 for O  read from file:
     ../pseudo/O.pbe-rrkjus.UPF
     MD5 check sum: 390ba29e75625707450f3bd3f0eb6be9
     Pseudo is Ultrasoft, Zval =  6.0
     Generated by new atomic code, or converted to UPF format
     Using radial grid of 1269 points,  4 beta functions with: 
                l(1) =   0
                l(2) =   0
                l(3) =   1
                l(4) =   1
     Q(r) pseudized with 0 coefficients 


     atomic species   valence    mass     pseudopotential
        Ni1           10.00     1.00000     Ni( 1.00)
        Ni2           10.00     1.00000     Ni( 1.00)
        Ni3           10.00     1.00000     Ni( 1.00)
        O1             6.00     1.00000     O ( 1.00)

     Starting magnetic structure 
     atomic species   magnetization
        Ni1          0.500
        Ni2          0.500
        Ni3         -0.500
        O1           0.000
 -----
     simplified LDA+U calculation, Hubbard_lmax = 2
     atomic species  L   Hubbard U  Hubbard alpha
        Ni1          2    0.000000   -0.070000
        Ni2          2    0.000000    0.000000
        Ni3          2    0.000000    0.000000
        O1           1    0.000000    0.000000
 -----

     12 Sym. Ops., with inversion, found



   Cartesian axes

     site n.     atom                  positions (alat units)
         1           Ni1 tau(   1) = (   0.0000000   0.0000000   0.0000000  )
         2           Ni2 tau(   2) = (   1.0000000   0.5000000   0.5000000  )
         3           Ni2 tau(   3) = (   0.5000000   1.0000000   0.5000000  )
         4           Ni2 tau(   4) = (   0.5000000   0.5000000   1.0000000  )
         5           Ni3 tau(   5) = (   0.5000000   0.5000000   0.0000000  )
         6           Ni3 tau(   6) = (   0.5000000   0.0000000   0.5000000  )
         7           Ni3 tau(   7) = (   0.0000000   0.5000000   0.5000000  )
         8           Ni3 tau(   8) = (   1.0000000   1.0000000   1.0000000  )
         9           O1  tau(   9) = (   0.0000000   0.0000000   0.5000000  )
        10           O1  tau(  10) = (   0.5000000   0.5000000   0.5000000  )
        11           O1  tau(  11) = (   0.0000000   0.5000000   1.0000000  )
        12           O1  tau(  12) = (   0.5000000   0.0000000   1.0000000  )
        13           O1  tau(  13) = (   1.0000000   0.5000000   1.0000000  )
        14           O1  tau(  14) = (   0.5000000   1.0000000   1.0000000  )
        15           O1  tau(  15) = (   0.5000000   0.5000000   1.5000000  )
        16           O1  tau(  16) = (   1.0000000   1.0000000   1.5000000  )

     number of k points=     8  gaussian smearing, width (Ry)=  0.0100
                       cart. coord. in units 2pi/alat
        k(    1) = (   0.0000000   0.0000000   0.0000000), wk =   0.1250000
        k(    2) = (   0.2500000  -0.2500000  -0.2500000), wk =   0.3750000
        k(    3) = (   0.0000000   0.0000000  -0.5000000), wk =   0.3750000
        k(    4) = (  -0.2500000  -0.2500000  -0.2500000), wk =   0.1250000
        k(    5) = (   0.0000000   0.0000000   0.0000000), wk =   0.1250000
        k(    6) = (   0.2500000  -0.2500000  -0.2500000), wk =   0.3750000
        k(    7) = (   0.0000000   0.0000000  -0.5000000), wk =   0.3750000
        k(    8) = (  -0.2500000  -0.2500000  -0.2500000), wk =   0.1250000

     Dense  grid:    86547 G-vectors     FFT dimensions: (  64,  64,  64)

     Smooth grid:    22075 G-vectors     FFT dimensions: (  40,  40,  40)

     Largest allocated arrays     est. size (Mb)     dimensions
        Kohn-Sham Wavefunctions         3.25 Mb     (   2764,   77)
        Atomic wavefunctions            3.37 Mb     (   2764,   80)
        NL pseudopotentials             8.77 Mb     (   2764,  208)
        Each V/rho on FFT grid          8.00 Mb     ( 262144,   2)
        Each G-vector array             0.66 Mb     (  86547)
        G-vector shells                 0.00 Mb     (    635)
     Largest temporary arrays     est. size (Mb)     dimensions
        Auxiliary wavefunctions        12.99 Mb     (   2764,  308)
        Each subspace H/S matrix        1.45 Mb     ( 308, 308)
        Each <psi_i|beta_j> matrix      0.24 Mb     (    208,   77)
        Arrays for rho mixing          32.00 Mb     ( 262144,   8)

     Check: negative/imaginary core charge=   -0.000047    0.000000

     The initial density is read from file :
     ./temp/nio.save/charge-density.dat

     Number of +U iterations with fixed ns =  0
     Starting occupations:
 --- enter write_ns ---
 LDA+U parameters:
U( 1)     =  0.00000000
alpha( 1) = -0.07000000
U( 2)     =  0.00000000
alpha( 2) =  0.00000000
U( 3)     =  0.00000000
alpha( 3) =  0.00000000
U( 4)     =  0.00000000
alpha( 4) =  0.00000000
atom    1   Tr[ns(na)] (up, down, total) =   4.96210  3.72839  8.69049
   spin  1
    eigenvalues: 
  0.985  0.985  0.997  0.997  0.997
    eigenvectors:
  0.500  0.500  0.000  0.000  0.000
  0.000  0.000  0.168  0.499  0.333
  0.000  0.000  0.166  0.501  0.333
  0.500  0.500  0.000  0.000  0.000
  0.000  0.000  0.667  0.000  0.333
    occupations:
  0.985  0.000  0.000  0.000  0.000
  0.000  0.997  0.000  0.000  0.000
  0.000  0.000  0.997  0.000  0.000
  0.000  0.000  0.000  0.985  0.000
  0.000  0.000  0.000  0.000  0.997
   spin  2
    eigenvalues: 
  0.370  0.370  0.996  0.996  0.996
    eigenvectors:
  0.003  0.997  0.000  0.000  0.000
  0.000  0.000  0.183  0.483  0.333
  0.000  0.000  0.150  0.516  0.333
  0.997  0.003  0.000  0.000  0.000
  0.000  0.000  0.666  0.001  0.333
    occupations:
  0.370  0.000  0.000  0.000  0.001
  0.000  0.996  0.000  0.001  0.000
  0.000  0.000  0.996 -0.001  0.000
  0.000  0.001 -0.001  0.370  0.000
  0.001  0.000  0.000  0.000  0.996
atomic mag. moment =     1.233715
atom    2   Tr[ns(na)] (up, down, total) =   4.96210  3.72838  8.69048
   spin  1
    eigenvalues: 
  0.985  0.985  0.997  0.997  0.997
    eigenvectors:
  0.750  0.250  0.000  0.000  0.000
  0.000  0.000  0.152  0.500  0.348
  0.000  0.000  0.696  0.000  0.304
  0.250  0.750  0.000  0.000  0.000
  0.000  0.000  0.152  0.500  0.348
    occupations:
  0.985  0.000  0.000  0.000  0.000
  0.000  0.997  0.000  0.000  0.000
  0.000  0.000  0.997  0.000  0.000
  0.000  0.000  0.000  0.985  0.000
  0.000  0.000  0.000  0.000  0.997
   spin  2
    eigenvalues: 
  0.370  0.370  0.996  0.996  0.996
    eigenvectors:
  0.250  0.750  0.000  0.000  0.000
  0.000  0.000  0.166  0.500  0.334
  0.000  0.000  0.667  0.000  0.333
  0.750  0.250  0.000  0.000  0.000
  0.000  0.000  0.166  0.500  0.334
    occupations:
  0.370  0.000  0.000  0.000  0.001
  0.000  0.996  0.000  0.001  0.000
  0.000  0.000  0.996 -0.001  0.000
  0.000  0.001 -0.001  0.370  0.000
  0.001  0.000  0.000  0.000  0.996
atomic mag. moment =     1.233723
atom    3   Tr[ns(na)] (up, down, total) =   4.96210  3.72838  8.69048
   spin  1
    eigenvalues: 
  0.985  0.985  0.997  0.997  0.997
    eigenvectors:
  0.750  0.250  0.000  0.000  0.000
  0.000  0.000  0.696  0.000  0.304
  0.000  0.000  0.152  0.500  0.348
  0.250  0.750  0.000  0.000  0.000
  0.000  0.000  0.152  0.500  0.348
    occupations:
  0.985  0.000  0.000  0.000  0.000
  0.000  0.997  0.000  0.000  0.000
  0.000  0.000  0.997  0.000  0.000
  0.000  0.000  0.000  0.985  0.000
  0.000  0.000  0.000  0.000  0.997
   spin  2
    eigenvalues: 
  0.370  0.370  0.996  0.996  0.996
    eigenvectors:
  0.250  0.750  0.000  0.000  0.000
  0.000  0.000  0.667  0.000  0.333
  0.000  0.000  0.166  0.500  0.334
  0.750  0.250  0.000  0.000  0.000
  0.000  0.000  0.166  0.500  0.334
    occupations:
  0.370  0.000  0.000  0.000  0.001
  0.000  0.996  0.000  0.001  0.000
  0.000  0.000  0.996 -0.001  0.000
  0.000  0.001 -0.001  0.370  0.000
  0.001  0.000  0.000  0.000  0.996
atomic mag. moment =     1.233723
atom    4   Tr[ns(na)] (up, down, total) =   4.96210  3.72838  8.69048
   spin  1
    eigenvalues: 
  0.985  0.985  0.997  0.997  0.997
    eigenvectors:
  0.000  1.000  0.000  0.000  0.000
  0.000  0.000  0.152  0.500  0.348
  0.000  0.000  0.152  0.500  0.348
  1.000  0.000  0.000  0.000  0.000
  0.000  0.000  0.696  0.000  0.304
    occupations:
  0.985  0.000  0.000  0.000  0.000
  0.000  0.997  0.000  0.000  0.000
  0.000  0.000  0.997  0.000  0.000
  0.000  0.000  0.000  0.985  0.000
  0.000  0.000  0.000  0.000  0.997
   spin  2
    eigenvalues: 
  0.370  0.370  0.996  0.996  0.996
    eigenvectors:
  1.000  0.000  0.000  0.000  0.000
  0.000  0.000  0.166  0.500  0.334
  0.000  0.000  0.166  0.500  0.334
  0.000  1.000  0.000  0.000  0.000
  0.000  0.000  0.667  0.000  0.333
    occupations:
  0.370  0.000  0.000  0.000  0.001
  0.000  0.996  0.000  0.001  0.000
  0.000  0.000  0.996 -0.001  0.000
  0.000  0.001 -0.001  0.370  0.000
  0.001  0.000  0.000  0.000  0.996
atomic mag. moment =     1.233723
atom    5   Tr[ns(na)] (up, down, total) =   3.72838  4.96210  8.69049
   spin  1
    eigenvalues: 
  0.370  0.370  0.996  0.996  0.996
    eigenvectors:
  1.000  0.000  0.000  0.000  0.000
  0.000  0.000  0.166  0.500  0.334
  0.000  0.000  0.166  0.500  0.334
  0.000  1.000  0.000  0.000  0.000
  0.000  0.000  0.667  0.000  0.333
    occupations:
  0.370  0.000  0.000  0.000  0.001
  0.000  0.996  0.000  0.001  0.000
  0.000  0.000  0.996 -0.001  0.000
  0.000  0.001 -0.001  0.370  0.000
  0.001  0.000  0.000  0.000  0.996
   spin  2
    eigenvalues: 
  0.985  0.985  0.997  0.997  0.997
    eigenvectors:
  0.000  1.000  0.000  0.000  0.000
  0.000  0.000  0.152  0.500  0.348
  0.000  0.000  0.152  0.500  0.348
  1.000  0.000  0.000  0.000  0.000
  0.000  0.000  0.696  0.000  0.304
    occupations:
  0.985  0.000  0.000  0.000  0.000
  0.000  0.997  0.000  0.000  0.000
  0.000  0.000  0.997  0.000  0.000
  0.000  0.000  0.000  0.985  0.000
  0.000  0.000  0.000  0.000  0.997
atomic mag. moment =    -1.233722
atom    6   Tr[ns(na)] (up, down, total) =   3.72838  4.96210  8.69049
   spin  1
    eigenvalues: 
  0.370  0.370  0.996  0.996  0.996
    eigenvectors:
  0.250  0.750  0.000  0.000  0.000
  0.000  0.000  0.667  0.000  0.333
  0.000  0.000  0.166  0.500  0.334
  0.750  0.250  0.000  0.000  0.000
  0.000  0.000  0.166  0.500  0.334
    occupations:
  0.370  0.000  0.000  0.000  0.001
  0.000  0.996  0.000  0.001  0.000
  0.000  0.000  0.996 -0.001  0.000
  0.000  0.001 -0.001  0.370  0.000
  0.001  0.000  0.000  0.000  0.996
   spin  2
    eigenvalues: 
  0.985  0.985  0.997  0.997  0.997
    eigenvectors:
  0.750  0.250  0.000  0.000  0.000
  0.000  0.000  0.696  0.000  0.304
  0.000  0.000  0.152  0.500  0.348
  0.250  0.750  0.000  0.000  0.000
  0.000  0.000  0.152  0.500  0.348
    occupations:
  0.985  0.000  0.000  0.000  0.000
  0.000  0.997  0.000  0.000  0.000
  0.000  0.000  0.997  0.000  0.000
  0.000  0.000  0.000  0.985  0.000
  0.000  0.000  0.000  0.000  0.997
atomic mag. moment =    -1.233722
atom    7   Tr[ns(na)] (up, down, total) =   3.72838  4.96210  8.69049
   spin  1
    eigenvalues: 
  0.370  0.370  0.996  0.996  0.996
    eigenvectors:
  0.250  0.750  0.000  0.000  0.000
  0.000  0.000  0.166  0.500  0.334
  0.000  0.000  0.667  0.000  0.333
  0.750  0.250  0.000  0.000  0.000
  0.000  0.000  0.166  0.500  0.334
    occupations:
  0.370  0.000  0.000  0.000  0.001
  0.000  0.996  0.000  0.001  0.000
  0.000  0.000  0.996 -0.001  0.000
  0.000  0.001 -0.001  0.370  0.000
  0.001  0.000  0.000  0.000  0.996
   spin  2
    eigenvalues: 
  0.985  0.985  0.997  0.997  0.997
    eigenvectors:
  0.750  0.250  0.000  0.000  0.000
  0.000  0.000  0.152  0.500  0.348
  0.000  0.000  0.696  0.000  0.304
  0.250  0.750  0.000  0.000  0.000
  0.000  0.000  0.152  0.500  0.348
    occupations:
  0.985  0.000  0.000  0.000  0.000
  0.000  0.997  0.000  0.000  0.000
  0.000  0.000  0.997  0.000  0.000
  0.000  0.000  0.000  0.985  0.000
  0.000  0.000  0.000  0.000  0.997
atomic mag. moment =    -1.233722
atom    8   Tr[ns(na)] (up, down, total) =   3.72839  4.96210  8.69049
   spin  1
    eigenvalues: 
  0.370  0.370  0.996  0.996  0.996
    eigenvectors:
  0.070  0.930  0.000  0.000  0.000
  0.000  0.000  0.053  0.614  0.333
  0.000  0.000  0.317  0.349  0.333
  0.930  0.070  0.000  0.000  0.000
  0.000  0.000  0.630  0.037  0.333
    occupations:
  0.370  0.000  0.000  0.000  0.001
  0.000  0.996  0.000  0.001  0.000
  0.000  0.000  0.996 -0.001  0.000
  0.000  0.001 -0.001  0.370  0.000
  0.001  0.000  0.000  0.000  0.996
   spin  2
    eigenvalues: 
  0.985  0.985  0.997  0.997  0.997
    eigenvectors:
  0.782  0.218  0.000  0.000  0.000
  0.000  0.000  0.187  0.479  0.333
  0.000  0.000  0.147  0.520  0.333
  0.218  0.782  0.000  0.000  0.000
  0.000  0.000  0.666  0.001  0.333
    occupations:
  0.985  0.000  0.000  0.000  0.000
  0.000  0.997  0.000  0.000  0.000
  0.000  0.000  0.997  0.000  0.000
  0.000  0.000  0.000  0.985  0.000
  0.000  0.000  0.000  0.000  0.997
atomic mag. moment =    -1.233714
atom    9   Tr[ns(na)] (up, down, total) =   2.81402  2.81402  5.62805
   spin  1
    eigenvalues: 
  0.938  0.938  0.938
    eigenvectors:
  0.670  0.000  0.330
  0.165  0.500  0.335
  0.165  0.500  0.335
    occupations:
  0.938  0.000  0.000
  0.000  0.938  0.000
  0.000  0.000  0.938
   spin  2
    eigenvalues: 
  0.938  0.938  0.938
    eigenvectors:
  0.670  0.000  0.330
  0.165  0.500  0.335
  0.165  0.500  0.335
    occupations:
  0.938  0.000  0.000
  0.000  0.938  0.000
  0.000  0.000  0.938
atomic mag. moment =     0.000000
atom   10   Tr[ns(na)] (up, down, total) =   2.81402  2.81403  5.62805
   spin  1
    eigenvalues: 
  0.938  0.938  0.938
    eigenvectors:
  0.383  0.283  0.333
  0.594  0.073  0.333
  0.023  0.644  0.333
    occupations:
  0.938  0.000  0.000
  0.000  0.938  0.000
  0.000  0.000  0.938
   spin  2
    eigenvalues: 
  0.938  0.938  0.938
    eigenvectors:
  0.554  0.113  0.333
  0.439  0.227  0.333
  0.007  0.660  0.333
    occupations:
  0.938  0.000  0.000
  0.000  0.938  0.000
  0.000  0.000  0.938
atomic mag. moment =    -0.000001
atom   11   Tr[ns(na)] (up, down, total) =   2.81402  2.81402  5.62805
   spin  1
    eigenvalues: 
  0.938  0.938  0.938
    eigenvectors:
  0.165  0.500  0.335
  0.165  0.500  0.335
  0.670  0.000  0.330
    occupations:
  0.938  0.000  0.000
  0.000  0.938  0.000
  0.000  0.000  0.938
   spin  2
    eigenvalues: 
  0.938  0.938  0.938
    eigenvectors:
  0.165  0.500  0.335
  0.165  0.500  0.335
  0.670  0.000  0.330
    occupations:
  0.938  0.000  0.000
  0.000  0.938  0.000
  0.000  0.000  0.938
atomic mag. moment =     0.000000
atom   12   Tr[ns(na)] (up, down, total) =   2.81402  2.81402  5.62805
   spin  1
    eigenvalues: 
  0.938  0.938  0.938
    eigenvectors:
  0.165  0.500  0.335
  0.670  0.000  0.330
  0.165  0.500  0.335
    occupations:
  0.938  0.000  0.000
  0.000  0.938  0.000
  0.000  0.000  0.938
   spin  2
    eigenvalues: 
  0.938  0.938  0.938
    eigenvectors:
  0.165  0.500  0.335
  0.670  0.000  0.330
  0.165  0.500  0.335
    occupations:
  0.938  0.000  0.000
  0.000  0.938  0.000
  0.000  0.000  0.938
atomic mag. moment =     0.000000
atom   13   Tr[ns(na)] (up, down, total) =   2.81402  2.81402  5.62805
   spin  1
    eigenvalues: 
  0.938  0.938  0.938
    eigenvectors:
  0.165  0.500  0.335
  0.165  0.500  0.335
  0.670  0.000  0.330
    occupations:
  0.938  0.000  0.000
  0.000  0.938  0.000
  0.000  0.000  0.938
   spin  2
    eigenvalues: 
  0.938  0.938  0.938
    eigenvectors:
  0.165  0.500  0.335
  0.165  0.500  0.335
  0.670  0.000  0.330
    occupations:
  0.938  0.000  0.000
  0.000  0.938  0.000
  0.000  0.000  0.938
atomic mag. moment =     0.000000
atom   14   Tr[ns(na)] (up, down, total) =   2.81402  2.81402  5.62805
   spin  1
    eigenvalues: 
  0.938  0.938  0.938
    eigenvectors:
  0.165  0.500  0.335
  0.670  0.000  0.330
  0.165  0.500  0.335
    occupations:
  0.938  0.000  0.000
  0.000  0.938  0.000
  0.000  0.000  0.938
   spin  2
    eigenvalues: 
  0.938  0.938  0.938
    eigenvectors:
  0.165  0.500  0.335
  0.670  0.000  0.330
  0.165  0.500  0.335
    occupations:
  0.938  0.000  0.000
  0.000  0.938  0.000
  0.000  0.000  0.938
atomic mag. moment =     0.000000
atom   15   Tr[ns(na)] (up, down, total) =   2.81402  2.81403  5.62805
   spin  1
    eigenvalues: 
  0.938  0.938  0.938
    eigenvectors:
  0.383  0.283  0.333
  0.594  0.073  0.333
  0.023  0.644  0.333
    occupations:
  0.938  0.000  0.000
  0.000  0.938  0.000
  0.000  0.000  0.938
   spin  2
    eigenvalues: 
  0.938  0.938  0.938
    eigenvectors:
  0.554  0.113  0.333
  0.439  0.227  0.333
  0.007  0.660  0.333
    occupations:
  0.938  0.000  0.000
  0.000  0.938  0.000
  0.000  0.000  0.938
atomic mag. moment =    -0.000001
atom   16   Tr[ns(na)] (up, down, total) =   2.81402  2.81402  5.62805
   spin  1
    eigenvalues: 
  0.938  0.938  0.938
    eigenvectors:
  0.670  0.000  0.330
  0.165  0.500  0.335
  0.165  0.500  0.335
    occupations:
  0.938  0.000  0.000
  0.000  0.938  0.000
  0.000  0.000  0.938
   spin  2
    eigenvalues: 
  0.938  0.938  0.938
    eigenvectors:
  0.670  0.000  0.330
  0.165  0.500  0.335
  0.165  0.500  0.335
    occupations:
  0.938  0.000  0.000
  0.000  0.938  0.000
  0.000  0.000  0.938
atomic mag. moment =     0.000000
N of occupied +U levels = 114.5482751
 --- exit write_ns ---
 Atomic wfc used for LDA+U Projector are NOT orthogonalized
     Starting wfc from file

     total cpu time spent up to now is       15.4 secs

     per-process dynamical memory:    86.2 Mb

     Self-consistent Calculation

     iteration #  1     ecut=    30.00 Ry     beta=0.30
     Davidson diagonalization with overlap
     c_bands:  1 eigenvalues not converged
     ethr =  8.16E-12,  avg # of iterations = 16.5
 --- enter write_ns ---
 LDA+U parameters:
U( 1)     =  0.00000000
alpha( 1) = -0.07000000
U( 2)     =  0.00000000
alpha( 2) =  0.00000000
U( 3)     =  0.00000000
alpha( 3) =  0.00000000
U( 4)     =  0.00000000
alpha( 4) =  0.00000000
atom    1   Tr[ns(na)] (up, down, total) =   4.96304  3.74141  8.70445
   spin  1
    eigenvalues: 
  0.985  0.985  0.998  0.998  0.998
    eigenvectors:
  0.862  0.138  0.000  0.000  0.000
  0.000  0.000  0.169  0.497  0.333
  0.000  0.000  0.164  0.502  0.333
  0.138  0.862  0.000  0.000  0.000
  0.000  0.000  0.667  0.000  0.333
    occupations:
  0.985  0.000  0.000  0.000  0.000
  0.000  0.998  0.000  0.000  0.000
  0.000  0.000  0.998  0.000  0.000
  0.000  0.000  0.000  0.985  0.000
  0.000  0.000  0.000  0.000  0.998
   spin  2
    eigenvalues: 
  0.377  0.377  0.996  0.996  0.996
    eigenvectors:
  0.911  0.089  0.000  0.000  0.000
  0.000  0.000  0.140  0.527  0.333
  0.000  0.000  0.195  0.472  0.333
  0.089  0.911  0.000  0.000  0.000
  0.000  0.000  0.665  0.002  0.333
    occupations:
  0.377  0.000  0.000  0.000  0.001
  0.000  0.996  0.000  0.001  0.000
  0.000  0.000  0.996 -0.001  0.000
  0.000  0.001 -0.001  0.377  0.000
  0.001  0.000  0.000  0.000  0.996
atomic mag. moment =     1.221632
atom    2   Tr[ns(na)] (up, down, total) =   4.96210  3.72804  8.69014
   spin  1
    eigenvalues: 
  0.985  0.985  0.997  0.997  0.997
    eigenvectors:
  0.750  0.250  0.000  0.000  0.000
  0.000  0.000  0.500  0.244  0.256
  0.000  0.000  0.000  0.513  0.487
  0.250  0.750  0.000  0.000  0.000
  0.000  0.000  0.500  0.244  0.256
    occupations:
  0.985  0.000  0.000  0.000  0.000
  0.000  0.997  0.000  0.000  0.000
  0.000  0.000  0.997  0.000  0.000
  0.000  0.000  0.000  0.985  0.000
  0.000  0.000  0.000  0.000  0.997
   spin  2
    eigenvalues: 
  0.370  0.370  0.996  0.996  0.996
    eigenvectors:
  0.250  0.750  0.000  0.000  0.000
  0.000  0.000  0.021  0.500  0.479
  0.000  0.000  0.957  0.000  0.043
  0.750  0.250  0.000  0.000  0.000
  0.000  0.000  0.021  0.500  0.479
    occupations:
  0.370  0.000  0.000  0.000  0.001
  0.000  0.996  0.000  0.001  0.000
  0.000  0.000  0.996 -0.001  0.000
  0.000  0.001 -0.001  0.370  0.000
  0.001  0.000  0.000  0.000  0.996
atomic mag. moment =     1.234062
atom    3   Tr[ns(na)] (up, down, total) =   4.96210  3.72804  8.69014
   spin  1
    eigenvalues: 
  0.985  0.985  0.997  0.997  0.997
    eigenvectors:
  0.750  0.250  0.000  0.000  0.000
  0.000  0.000  0.000  0.513  0.487
  0.000  0.000  0.500  0.244  0.256
  0.250  0.750  0.000  0.000  0.000
  0.000  0.000  0.500  0.244  0.256
    occupations:
  0.985  0.000  0.000  0.000  0.000
  0.000  0.997  0.000  0.000  0.000
  0.000  0.000  0.997  0.000  0.000
  0.000  0.000  0.000  0.985  0.000
  0.000  0.000  0.000  0.000  0.997
   spin  2
    eigenvalues: 
  0.370  0.370  0.996  0.996  0.996
    eigenvectors:
  0.250  0.750  0.000  0.000  0.000
  0.000  0.000  0.957  0.000  0.043
  0.000  0.000  0.021  0.500  0.479
  0.750  0.250  0.000  0.000  0.000
  0.000  0.000  0.021  0.500  0.479
    occupations:
  0.370  0.000  0.000  0.000  0.001
  0.000  0.996  0.000  0.001  0.000
  0.000  0.000  0.996 -0.001  0.000
  0.000  0.001 -0.001  0.370  0.000
  0.001  0.000  0.000  0.000  0.996
atomic mag. moment =     1.234062
atom    4   Tr[ns(na)] (up, down, total) =   4.96210  3.72804  8.69014
   spin  1
    eigenvalues: 
  0.985  0.985  0.997  0.997  0.997
    eigenvectors:
  0.000  1.000  0.000  0.000  0.000
  0.000  0.000  0.500  0.244  0.256
  0.000  0.000  0.500  0.244  0.256
  1.000  0.000  0.000  0.000  0.000
  0.000  0.000  0.000  0.513  0.487
    occupations:
  0.985  0.000  0.000  0.000  0.000
  0.000  0.997  0.000  0.000  0.000
  0.000  0.000  0.997  0.000  0.000
  0.000  0.000  0.000  0.985  0.000
  0.000  0.000  0.000  0.000  0.997
   spin  2
    eigenvalues: 
  0.370  0.370  0.996  0.996  0.996
    eigenvectors:
  1.000  0.000  0.000  0.000  0.000
  0.000  0.000  0.021  0.500  0.479
  0.000  0.000  0.021  0.500  0.479
  0.000  1.000  0.000  0.000  0.000
  0.000  0.000  0.957  0.000  0.043
    occupations:
  0.370  0.000  0.000  0.000  0.001
  0.000  0.996  0.000  0.001  0.000
  0.000  0.000  0.996 -0.001  0.000
  0.000  0.001 -0.001  0.370  0.000
  0.001  0.000  0.000  0.000  0.996
atomic mag. moment =     1.234062
atom    5   Tr[ns(na)] (up, down, total) =   3.72834  4.96206  8.69040
   spin  1
    eigenvalues: 
  0.370  0.371  0.996  0.996  0.996
    eigenvectors:
  1.000  0.000  0.000  0.000  0.000
  0.000  0.000  0.500  0.166  0.334
  0.000  0.000  0.500  0.166  0.334
  0.000  1.000  0.000  0.000  0.000
  0.000  0.000  0.000  0.667  0.333
    occupations:
  0.370  0.000  0.000  0.000  0.001
  0.000  0.996  0.000  0.001  0.000
  0.000  0.000  0.996 -0.001  0.000
  0.000  0.001 -0.001  0.371  0.000
  0.001  0.000  0.000  0.000  0.996
   spin  2
    eigenvalues: 
  0.985  0.985  0.997  0.997  0.997
    eigenvectors:
  1.000  0.000  0.000  0.000  0.000
  0.000  0.000  0.001  0.500  0.499
  0.000  0.000  0.001  0.500  0.499
  0.000  1.000  0.000  0.000  0.000
  0.000  0.000  0.999  0.000  0.001
    occupations:
  0.985  0.000  0.000  0.000  0.000
  0.000  0.997  0.000  0.000  0.000
  0.000  0.000  0.997  0.000  0.000
  0.000  0.000  0.000  0.985  0.000
  0.000  0.000  0.000  0.000  0.997
atomic mag. moment =    -1.233722
atom    6   Tr[ns(na)] (up, down, total) =   3.72834  4.96206  8.69040
   spin  1
    eigenvalues: 
  0.370  0.371  0.996  0.996  0.996
    eigenvectors:
  0.250  0.750  0.000  0.000  0.000
  0.000  0.000  0.000  0.667  0.333
  0.000  0.000  0.500  0.166  0.334
  0.750  0.250  0.000  0.000  0.000
  0.000  0.000  0.500  0.166  0.334
    occupations:
  0.370  0.000  0.000  0.000  0.001
  0.000  0.996  0.000  0.001  0.000
  0.000  0.000  0.996 -0.001  0.000
  0.000  0.001 -0.001  0.370  0.000
  0.001  0.000  0.000  0.000  0.996
   spin  2
    eigenvalues: 
  0.985  0.985  0.997  0.997  0.997
    eigenvectors:
  0.250  0.750  0.000  0.000  0.000
  0.000  0.000  0.999  0.000  0.001
  0.000  0.000  0.001  0.500  0.499
  0.750  0.250  0.000  0.000  0.000
  0.000  0.000  0.001  0.500  0.499
    occupations:
  0.985  0.000  0.000  0.000  0.000
  0.000  0.997  0.000  0.000  0.000
  0.000  0.000  0.997  0.000  0.000
  0.000  0.000  0.000  0.985  0.000
  0.000  0.000  0.000  0.000  0.997
atomic mag. moment =    -1.233722
atom    7   Tr[ns(na)] (up, down, total) =   3.72834  4.96206  8.69040
   spin  1
    eigenvalues: 
  0.370  0.371  0.996  0.996  0.996
    eigenvectors:
  0.250  0.750  0.000  0.000  0.000
  0.000  0.000  0.500  0.166  0.334
  0.000  0.000  0.000  0.667  0.333
  0.750  0.250  0.000  0.000  0.000
  0.000  0.000  0.500  0.166  0.334
    occupations:
  0.370  0.000  0.000  0.000  0.001
  0.000  0.996  0.000  0.001  0.000
  0.000  0.000  0.996 -0.001  0.000
  0.000  0.001 -0.001  0.370  0.000
  0.001  0.000  0.000  0.000  0.996
   spin  2
    eigenvalues: 
  0.985  0.985  0.997  0.997  0.997
    eigenvectors:
  0.250  0.750  0.000  0.000  0.000
  0.000  0.000  0.001  0.500  0.499
  0.000  0.000  0.999  0.000  0.001
  0.750  0.250  0.000  0.000  0.000
  0.000  0.000  0.001  0.500  0.499
    occupations:
  0.985  0.000  0.000  0.000  0.000
  0.000  0.997  0.000  0.000  0.000
  0.000  0.000  0.997  0.000  0.000
  0.000  0.000  0.000  0.985  0.000
  0.000  0.000  0.000  0.000  0.997
atomic mag. moment =    -1.233722
atom    8   Tr[ns(na)] (up, down, total) =   3.72741  4.96113  8.68854
   spin  1
    eigenvalues: 
  0.370  0.370  0.996  0.996  0.996
    eigenvectors:
  1.000  0.000  0.000  0.000  0.000
  0.000  0.000  0.167  0.500  0.333
  0.000  0.000  0.167  0.500  0.333
  0.000  1.000  0.000  0.000  0.000
  0.000  0.000  0.667  0.000  0.333
    occupations:
  0.370  0.000  0.000  0.000  0.001
  0.000  0.996  0.000  0.001  0.000
  0.000  0.000  0.996 -0.001  0.000
  0.000  0.001 -0.001  0.370  0.000
  0.001  0.000  0.000  0.000  0.996
   spin  2
    eigenvalues: 
  0.984  0.984  0.997  0.997  0.997
    eigenvectors:
  0.211  0.789  0.000  0.000  0.000
  0.000  0.000  0.120  0.546  0.333
  0.000  0.000  0.218  0.449  0.333
  0.789  0.211  0.000  0.000  0.000
  0.000  0.000  0.662  0.005  0.333
    occupations:
  0.984  0.000  0.000  0.000  0.000
  0.000  0.997  0.000  0.000  0.000
  0.000  0.000  0.997  0.000  0.000
  0.000  0.000  0.000  0.984  0.000
  0.000  0.000  0.000  0.000  0.997
atomic mag. moment =    -1.233722
atom    9   Tr[ns(na)] (up, down, total) =   2.81402  2.81301  5.62703
   spin  1
    eigenvalues: 
  0.938  0.938  0.938
    eigenvectors:
  0.678  0.000  0.322
  0.161  0.500  0.339
  0.161  0.500  0.339
    occupations:
  0.938  0.000  0.000
  0.000  0.938  0.000
  0.000  0.000  0.938
   spin  2
    eigenvalues: 
  0.937  0.938  0.938
    eigenvectors:
  1.000  0.000  0.000
  0.000  0.500  0.500
  0.000  0.500  0.500
    occupations:
  0.937  0.000  0.000
  0.000  0.938  0.000
  0.000  0.000  0.938
atomic mag. moment =     0.001005
atom   10   Tr[ns(na)] (up, down, total) =   2.81402  2.81400  5.62802
   spin  1
    eigenvalues: 
  0.938  0.938  0.938
    eigenvectors:
  0.449  0.217  0.333
  0.546  0.121  0.333
  0.005  0.662  0.333
    occupations:
  0.938  0.000  0.000
  0.000  0.938  0.000
  0.000  0.000  0.938
   spin  2
    eigenvalues: 
  0.938  0.938  0.938
    eigenvectors:
  0.440  0.227  0.333
  0.554  0.113  0.333
  0.007  0.660  0.333
    occupations:
  0.938  0.000  0.000
  0.000  0.938  0.000
  0.000  0.000  0.938
atomic mag. moment =     0.000016
atom   11   Tr[ns(na)] (up, down, total) =   2.81402  2.81301  5.62703
   spin  1
    eigenvalues: 
  0.938  0.938  0.938
    eigenvectors:
  0.161  0.500  0.339
  0.161  0.500  0.339
  0.678  0.000  0.322
    occupations:
  0.938  0.000  0.000
  0.000  0.938  0.000
  0.000  0.000  0.938
   spin  2
    eigenvalues: 
  0.937  0.938  0.938
    eigenvectors:
  0.000  0.500  0.500
  0.000  0.500  0.500
  1.000  0.000  0.000
    occupations:
  0.938  0.000  0.000
  0.000  0.938  0.000
  0.000  0.000  0.937
atomic mag. moment =     0.001005
atom   12   Tr[ns(na)] (up, down, total) =   2.81402  2.81301  5.62703
   spin  1
    eigenvalues: 
  0.938  0.938  0.938
    eigenvectors:
  0.161  0.500  0.339
  0.678  0.000  0.322
  0.161  0.500  0.339
    occupations:
  0.938  0.000  0.000
  0.000  0.938  0.000
  0.000  0.000  0.938
   spin  2
    eigenvalues: 
  0.937  0.938  0.938
    eigenvectors:
  0.000  0.500  0.500
  1.000  0.000  0.000
  0.000  0.500  0.500
    occupations:
  0.938  0.000  0.000
  0.000  0.937  0.000
  0.000  0.000  0.938
atomic mag. moment =     0.001005
atom   13   Tr[ns(na)] (up, down, total) =   2.81402  2.81301  5.62703
   spin  1
    eigenvalues: 
  0.938  0.938  0.938
    eigenvectors:
  0.161  0.500  0.339
  0.161  0.500  0.339
  0.678  0.000  0.322
    occupations:
  0.938  0.000  0.000
  0.000  0.938  0.000
  0.000  0.000  0.938
   spin  2
    eigenvalues: 
  0.937  0.938  0.938
    eigenvectors:
  0.000  0.500  0.500
  0.000  0.500  0.500
  1.000  0.000  0.000
    occupations:
  0.938  0.000  0.000
  0.000  0.938  0.000
  0.000  0.000  0.937
atomic mag. moment =     0.001005
atom   14   Tr[ns(na)] (up, down, total) =   2.81402  2.81301  5.62703
   spin  1
    eigenvalues: 
  0.938  0.938  0.938
    eigenvectors:
  0.161  0.500  0.339
  0.678  0.000  0.322
  0.161  0.500  0.339
    occupations:
  0.938  0.000  0.000
  0.000  0.938  0.000
  0.000  0.000  0.938
   spin  2
    eigenvalues: 
  0.937  0.938  0.938
    eigenvectors:
  0.000  0.500  0.500
  1.000  0.000  0.000
  0.000  0.500  0.500
    occupations:
  0.938  0.000  0.000
  0.000  0.937  0.000
  0.000  0.000  0.938
atomic mag. moment =     0.001005
atom   15   Tr[ns(na)] (up, down, total) =   2.81402  2.81400  5.62802
   spin  1
    eigenvalues: 
  0.938  0.938  0.938
    eigenvectors:
  0.411  0.255  0.333
  0.575  0.092  0.333
  0.014  0.653  0.333
    occupations:
  0.938  0.000  0.000
  0.000  0.938  0.000
  0.000  0.000  0.938
   spin  2
    eigenvalues: 
  0.938  0.938  0.938
    eigenvectors:
  0.411  0.256  0.333
  0.575  0.091  0.333
  0.014  0.653  0.333
    occupations:
  0.938  0.000  0.000
  0.000  0.938  0.000
  0.000  0.000  0.938
atomic mag. moment =     0.000016
atom   16   Tr[ns(na)] (up, down, total) =   2.81402  2.81301  5.62703
   spin  1
    eigenvalues: 
  0.938  0.938  0.938
    eigenvectors:
  0.678  0.000  0.322
  0.161  0.500  0.339
  0.161  0.500  0.339
    occupations:
  0.938  0.000  0.000
  0.000  0.938  0.000
  0.000  0.000  0.938
   spin  2
    eigenvalues: 
  0.937  0.938  0.938
    eigenvectors:
  1.000  0.000  0.000
  0.000  0.500  0.500
  0.000  0.500  0.500
    occupations:
  0.937  0.000  0.000
  0.000  0.938  0.000
  0.000  0.000  0.938
atomic mag. moment =     0.001005
N of occupied +U levels = 114.5528097
 --- exit write_ns ---

     total cpu time spent up to now is       48.8 secs

     total energy              =    -942.04089287 Ry
     Harris-Foulkes estimate   =    -942.04094680 Ry
     estimated scf accuracy    <       0.00012522 Ry

     total magnetization       =     0.00 Bohr mag/cell
     absolute magnetization    =    12.65 Bohr mag/cell

     iteration #  2     ecut=    30.00 Ry     beta=0.30
     Davidson diagonalization with overlap
     ethr =  9.78E-08,  avg # of iterations =  2.0

     total cpu time spent up to now is       75.6 secs

     total energy              =    -942.04091672 Ry
     Harris-Foulkes estimate   =    -942.04094201 Ry
     estimated scf accuracy    <       0.00008901 Ry

     total magnetization       =     0.00 Bohr mag/cell
     absolute magnetization    =    12.65 Bohr mag/cell

     iteration #  3     ecut=    30.00 Ry     beta=0.30
     Davidson diagonalization with overlap
     ethr =  6.95E-08,  avg # of iterations =  1.9

     total cpu time spent up to now is      102.3 secs

     total energy              =    -942.04092941 Ry
     Harris-Foulkes estimate   =    -942.04092949 Ry
     estimated scf accuracy    <       0.00000193 Ry

     total magnetization       =     0.00 Bohr mag/cell
     absolute magnetization    =    12.65 Bohr mag/cell

     iteration #  4     ecut=    30.00 Ry     beta=0.30
     Davidson diagonalization with overlap
     ethr =  1.51E-09,  avg # of iterations =  2.0

     total cpu time spent up to now is      129.0 secs

     total energy              =    -942.04092981 Ry
     Harris-Foulkes estimate   =    -942.04092958 Ry
     estimated scf accuracy    <       0.00000063 Ry

     total magnetization       =     0.00 Bohr mag/cell
     absolute magnetization    =    12.65 Bohr mag/cell

     iteration #  5     ecut=    30.00 Ry     beta=0.30
     Davidson diagonalization with overlap
     ethr =  4.96E-10,  avg # of iterations =  1.5

     total cpu time spent up to now is      155.4 secs

     total energy              =    -942.04092989 Ry
     Harris-Foulkes estimate   =    -942.04092987 Ry
     estimated scf accuracy    <       0.00000016 Ry

     total magnetization       =     0.00 Bohr mag/cell
     absolute magnetization    =    12.65 Bohr mag/cell

     iteration #  6     ecut=    30.00 Ry     beta=0.30
     Davidson diagonalization with overlap
     ethr =  1.25E-10,  avg # of iterations =  1.5

     total cpu time spent up to now is      181.9 secs

     total energy              =    -942.04092992 Ry
     Harris-Foulkes estimate   =    -942.04092991 Ry
     estimated scf accuracy    <       0.00000002 Ry

     total magnetization       =     0.00 Bohr mag/cell
     absolute magnetization    =    12.65 Bohr mag/cell

     iteration #  7     ecut=    30.00 Ry     beta=0.30
     Davidson diagonalization with overlap
     ethr =  1.58E-11,  avg # of iterations =  1.6

     total cpu time spent up to now is      207.9 secs

     End of self-consistent calculation
 --- enter write_ns ---
 LDA+U parameters:
U( 1)     =  0.00000000
alpha( 1) = -0.07000000
U( 2)     =  0.00000000
alpha( 2) =  0.00000000
U( 3)     =  0.00000000
alpha( 3) =  0.00000000
U( 4)     =  0.00000000
alpha( 4) =  0.00000000
atom    1   Tr[ns(na)] (up, down, total) =   4.96221  3.73563  8.69784
   spin  1
    eigenvalues: 
  0.985  0.985  0.997  0.997  0.997
    eigenvectors:
  0.399  0.601  0.000  0.000  0.000
  0.000  0.000  0.095  0.572  0.333
  0.000  0.000  0.251  0.415  0.333
  0.601  0.399  0.000  0.000  0.000
  0.000  0.000  0.654  0.013  0.333
    occupations:
  0.985  0.000  0.000  0.000  0.000
  0.000  0.997  0.000  0.000  0.000
  0.000  0.000  0.997  0.000  0.000
  0.000  0.000  0.000  0.985  0.000
  0.000  0.000  0.000  0.000  0.997
   spin  2
    eigenvalues: 
  0.374  0.374  0.996  0.996  0.996
    eigenvectors:
  0.030  0.970  0.000  0.000  0.000
  0.000  0.000  0.124  0.543  0.333
  0.000  0.000  0.214  0.453  0.333
  0.970  0.030  0.000  0.000  0.000
  0.000  0.000  0.663  0.004  0.333
    occupations:
  0.374  0.000  0.000  0.000  0.001
  0.000  0.996  0.000  0.001  0.000
  0.000  0.000  0.996 -0.001  0.000
  0.000  0.001 -0.001  0.374  0.000
  0.001  0.000  0.000  0.000  0.996
atomic mag. moment =     1.226582
atom    2   Tr[ns(na)] (up, down, total) =   4.96211  3.72828  8.69039
   spin  1
    eigenvalues: 
  0.985  0.985  0.997  0.997  0.997
    eigenvectors:
  0.250  0.750  0.000  0.000  0.000
  0.000  0.000  0.012  0.500  0.488
  0.000  0.000  0.977  0.000  0.023
  0.750  0.250  0.000  0.000  0.000
  0.000  0.000  0.012  0.500  0.488
    occupations:
  0.985  0.000  0.000  0.000  0.000
  0.000  0.997  0.000  0.000  0.000
  0.000  0.000  0.997  0.000  0.000
  0.000  0.000  0.000  0.985  0.000
  0.000  0.000  0.000  0.000  0.997
   spin  2
    eigenvalues: 
  0.370  0.370  0.996  0.996  0.996
    eigenvectors:
  0.250  0.750  0.000  0.000  0.000
  0.000  0.000  0.067  0.500  0.433
  0.000  0.000  0.865  0.000  0.135
  0.750  0.250  0.000  0.000  0.000
  0.000  0.000  0.067  0.500  0.433
    occupations:
  0.370  0.000  0.000  0.000  0.001
  0.000  0.996  0.000  0.001  0.000
  0.000  0.000  0.996 -0.001  0.000
  0.000  0.001 -0.001  0.370  0.000
  0.001  0.000  0.000  0.000  0.996
atomic mag. moment =     1.233833
atom    3   Tr[ns(na)] (up, down, total) =   4.96211  3.72828  8.69039
   spin  1
    eigenvalues: 
  0.985  0.985  0.997  0.997  0.997
    eigenvectors:
  0.250  0.750  0.000  0.000  0.000
  0.000  0.000  0.977  0.000  0.023
  0.000  0.000  0.012  0.500  0.488
  0.750  0.250  0.000  0.000  0.000
  0.000  0.000  0.012  0.500  0.488
    occupations:
  0.985  0.000  0.000  0.000  0.000
  0.000  0.997  0.000  0.000  0.000
  0.000  0.000  0.997  0.000  0.000
  0.000  0.000  0.000  0.985  0.000
  0.000  0.000  0.000  0.000  0.997
   spin  2
    eigenvalues: 
  0.370  0.370  0.996  0.996  0.996
    eigenvectors:
  0.250  0.750  0.000  0.000  0.000
  0.000  0.000  0.865  0.000  0.135
  0.000  0.000  0.067  0.500  0.433
  0.750  0.250  0.000  0.000  0.000
  0.000  0.000  0.067  0.500  0.433
    occupations:
  0.370  0.000  0.000  0.000  0.001
  0.000  0.996  0.000  0.001  0.000
  0.000  0.000  0.996 -0.001  0.000
  0.000  0.001 -0.001  0.370  0.000
  0.001  0.000  0.000  0.000  0.996
atomic mag. moment =     1.233833
atom    4   Tr[ns(na)] (up, down, total) =   4.96211  3.72828  8.69039
   spin  1
    eigenvalues: 
  0.985  0.985  0.997  0.997  0.997
    eigenvectors:
  1.000  0.000  0.000  0.000  0.000
  0.000  0.000  0.012  0.500  0.488
  0.000  0.000  0.012  0.500  0.488
  0.000  1.000  0.000  0.000  0.000
  0.000  0.000  0.977  0.000  0.023
    occupations:
  0.985  0.000  0.000  0.000  0.000
  0.000  0.997  0.000  0.000  0.000
  0.000  0.000  0.997  0.000  0.000
  0.000  0.000  0.000  0.985  0.000
  0.000  0.000  0.000  0.000  0.997
   spin  2
    eigenvalues: 
  0.370  0.370  0.996  0.996  0.996
    eigenvectors:
  1.000  0.000  0.000  0.000  0.000
  0.000  0.000  0.067  0.500  0.433
  0.000  0.000  0.067  0.500  0.433
  0.000  1.000  0.000  0.000  0.000
  0.000  0.000  0.865  0.000  0.135
    occupations:
  0.370  0.000  0.000  0.000  0.001
  0.000  0.996  0.000  0.001  0.000
  0.000  0.000  0.996 -0.001  0.000
  0.000  0.001 -0.001  0.370  0.000
  0.001  0.000  0.000  0.000  0.996
atomic mag. moment =     1.233833
atom    5   Tr[ns(na)] (up, down, total) =   3.72830  4.96210  8.69040
   spin  1
    eigenvalues: 
  0.370  0.370  0.996  0.996  0.996
    eigenvectors:
  0.000  1.000  0.000  0.000  0.000
  0.000  0.000  0.155  0.500  0.345
  0.000  0.000  0.155  0.500  0.345
  1.000  0.000  0.000  0.000  0.000
  0.000  0.000  0.689  0.000  0.311
    occupations:
  0.370  0.000  0.000  0.000  0.001
  0.000  0.996  0.000  0.001  0.000
  0.000  0.000  0.996 -0.001  0.000
  0.000  0.001 -0.001  0.370  0.000
  0.001  0.000  0.000  0.000  0.996
   spin  2
    eigenvalues: 
  0.985  0.985  0.997  0.997  0.997
    eigenvectors:
  1.000  0.000  0.000  0.000  0.000
  0.000  0.000  0.002  0.500  0.498
  0.000  0.000  0.002  0.500  0.498
  0.000  1.000  0.000  0.000  0.000
  0.000  0.000  0.996  0.000  0.004
    occupations:
  0.985  0.000  0.000  0.000  0.000
  0.000  0.997  0.000  0.000  0.000
  0.000  0.000  0.997  0.000  0.000
  0.000  0.000  0.000  0.985  0.000
  0.000  0.000  0.000  0.000  0.997
atomic mag. moment =    -1.233793
atom    6   Tr[ns(na)] (up, down, total) =   3.72830  4.96210  8.69040
   spin  1
    eigenvalues: 
  0.370  0.370  0.996  0.996  0.996
    eigenvectors:
  0.750  0.250  0.000  0.000  0.000
  0.000  0.000  0.689  0.000  0.311
  0.000  0.000  0.155  0.500  0.345
  0.250  0.750  0.000  0.000  0.000
  0.000  0.000  0.155  0.500  0.345
    occupations:
  0.370  0.000  0.000  0.000  0.001
  0.000  0.996  0.000  0.001  0.000
  0.000  0.000  0.996 -0.001  0.000
  0.000  0.001 -0.001  0.370  0.000
  0.001  0.000  0.000  0.000  0.996
   spin  2
    eigenvalues: 
  0.985  0.985  0.997  0.997  0.997
    eigenvectors:
  0.250  0.750  0.000  0.000  0.000
  0.000  0.000  0.996  0.000  0.004
  0.000  0.000  0.002  0.500  0.498
  0.750  0.250  0.000  0.000  0.000
  0.000  0.000  0.002  0.500  0.498
    occupations:
  0.985  0.000  0.000  0.000  0.000
  0.000  0.997  0.000  0.000  0.000
  0.000  0.000  0.997  0.000  0.000
  0.000  0.000  0.000  0.985  0.000
  0.000  0.000  0.000  0.000  0.997
atomic mag. moment =    -1.233793
atom    7   Tr[ns(na)] (up, down, total) =   3.72830  4.96210  8.69040
   spin  1
    eigenvalues: 
  0.370  0.370  0.996  0.996  0.996
    eigenvectors:
  0.750  0.250  0.000  0.000  0.000
  0.000  0.000  0.155  0.500  0.345
  0.000  0.000  0.689  0.000  0.311
  0.250  0.750  0.000  0.000  0.000
  0.000  0.000  0.155  0.500  0.345
    occupations:
  0.370  0.000  0.000  0.000  0.001
  0.000  0.996  0.000  0.001  0.000
  0.000  0.000  0.996 -0.001  0.000
  0.000  0.001 -0.001  0.370  0.000
  0.001  0.000  0.000  0.000  0.996
   spin  2
    eigenvalues: 
  0.985  0.985  0.997  0.997  0.997
    eigenvectors:
  0.250  0.750  0.000  0.000  0.000
  0.000  0.000  0.002  0.500  0.498
  0.000  0.000  0.996  0.000  0.004
  0.750  0.250  0.000  0.000  0.000
  0.000  0.000  0.002  0.500  0.498
    occupations:
  0.985  0.000  0.000  0.000  0.000
  0.000  0.997  0.000  0.000  0.000
  0.000  0.000  0.997  0.000  0.000
  0.000  0.000  0.000  0.985  0.000
  0.000  0.000  0.000  0.000  0.997
atomic mag. moment =    -1.233793
atom    8   Tr[ns(na)] (up, down, total) =   3.72917  4.96166  8.69083
   spin  1
    eigenvalues: 
  0.371  0.371  0.996  0.996  0.996
    eigenvectors:
  0.041  0.959  0.000  0.000  0.000
  0.000  0.000  0.107  0.560  0.333
  0.000  0.000  0.235  0.432  0.333
  0.959  0.041  0.000  0.000  0.000
  0.000  0.000  0.658  0.008  0.333
    occupations:
  0.371  0.000  0.000  0.000  0.001
  0.000  0.996  0.000  0.001  0.000
  0.000  0.000  0.996 -0.001  0.000
  0.000  0.001 -0.001  0.371  0.000
  0.001  0.000  0.000  0.000  0.996
   spin  2
    eigenvalues: 
  0.985  0.985  0.997  0.997  0.997
    eigenvectors:
  0.924  0.076  0.000  0.000  0.000
  0.000  0.000  0.042  0.625  0.333
  0.000  0.000  0.339  0.327  0.333
  0.076  0.924  0.000  0.000  0.000
  0.000  0.000  0.619  0.048  0.333
    occupations:
  0.985  0.000  0.000  0.000  0.000
  0.000  0.997  0.000  0.000  0.000
  0.000  0.000  0.997  0.000  0.000
  0.000  0.000  0.000  0.985  0.000
  0.000  0.000  0.000  0.000  0.997
atomic mag. moment =    -1.232489
atom    9   Tr[ns(na)] (up, down, total) =   2.81408  2.81350  5.62758
   spin  1
    eigenvalues: 
  0.938  0.938  0.938
    eigenvectors:
  0.775  0.000  0.225
  0.113  0.500  0.387
  0.113  0.500  0.387
    occupations:
  0.938  0.000  0.000
  0.000  0.938  0.000
  0.000  0.000  0.938
   spin  2
    eigenvalues: 
  0.937  0.938  0.938
    eigenvectors:
  0.999  0.000  0.001
  0.001  0.500  0.499
  0.001  0.500  0.499
    occupations:
  0.937  0.000  0.000
  0.000  0.938  0.000
  0.000  0.000  0.938
atomic mag. moment =     0.000574
atom   10   Tr[ns(na)] (up, down, total) =   2.81403  2.81402  5.62806
   spin  1
    eigenvalues: 
  0.938  0.938  0.938
    eigenvectors:
  0.500  0.167  0.333
  0.500  0.167  0.333
  0.000  0.667  0.333
    occupations:
  0.938  0.000  0.000
  0.000  0.938  0.000
  0.000  0.000  0.938
   spin  2
    eigenvalues: 
  0.938  0.938  0.938
    eigenvectors:
  0.431  0.235  0.333
  0.560  0.106  0.333
  0.008  0.658  0.333
    occupations:
  0.938  0.000  0.000
  0.000  0.938  0.000
  0.000  0.000  0.938
atomic mag. moment =     0.000009
atom   11   Tr[ns(na)] (up, down, total) =   2.81408  2.81350  5.62758
   spin  1
    eigenvalues: 
  0.938  0.938  0.938
    eigenvectors:
  0.113  0.500  0.387
  0.113  0.500  0.387
  0.775  0.000  0.225
    occupations:
  0.938  0.000  0.000
  0.000  0.938  0.000
  0.000  0.000  0.938
   spin  2
    eigenvalues: 
  0.937  0.938  0.938
    eigenvectors:
  0.001  0.500  0.499
  0.001  0.500  0.499
  0.999  0.000  0.001
    occupations:
  0.938  0.000  0.000
  0.000  0.938  0.000
  0.000  0.000  0.937
atomic mag. moment =     0.000574
atom   12   Tr[ns(na)] (up, down, total) =   2.81408  2.81350  5.62758
   spin  1
    eigenvalues: 
  0.938  0.938  0.938
    eigenvectors:
  0.113  0.500  0.387
  0.775  0.000  0.225
  0.113  0.500  0.387
    occupations:
  0.938  0.000  0.000
  0.000  0.938  0.000
  0.000  0.000  0.938
   spin  2
    eigenvalues: 
  0.937  0.938  0.938
    eigenvectors:
  0.001  0.500  0.499
  0.999  0.000  0.001
  0.001  0.500  0.499
    occupations:
  0.938  0.000  0.000
  0.000  0.937  0.000
  0.000  0.000  0.938
atomic mag. moment =     0.000574
atom   13   Tr[ns(na)] (up, down, total) =   2.81408  2.81350  5.62758
   spin  1
    eigenvalues: 
  0.938  0.938  0.938
    eigenvectors:
  0.113  0.500  0.387
  0.113  0.500  0.387
  0.775  0.000  0.225
    occupations:
  0.938  0.000  0.000
  0.000  0.938  0.000
  0.000  0.000  0.938
   spin  2
    eigenvalues: 
  0.937  0.938  0.938
    eigenvectors:
  0.001  0.500  0.499
  0.001  0.500  0.499
  0.999  0.000  0.001
    occupations:
  0.938  0.000  0.000
  0.000  0.938  0.000
  0.000  0.000  0.937
atomic mag. moment =     0.000574
atom   14   Tr[ns(na)] (up, down, total) =   2.81408  2.81350  5.62758
   spin  1
    eigenvalues: 
  0.938  0.938  0.938
    eigenvectors:
  0.113  0.500  0.387
  0.775  0.000  0.225
  0.113  0.500  0.387
    occupations:
  0.938  0.000  0.000
  0.000  0.938  0.000
  0.000  0.000  0.938
   spin  2
    eigenvalues: 
  0.937  0.938  0.938
    eigenvectors:
  0.001  0.500  0.499
  0.999  0.000  0.001
  0.001  0.500  0.499
    occupations:
  0.938  0.000  0.000
  0.000  0.937  0.000
  0.000  0.000  0.938
atomic mag. moment =     0.000574
atom   15   Tr[ns(na)] (up, down, total) =   2.81403  2.81402  5.62806
   spin  1
    eigenvalues: 
  0.938  0.938  0.938
    eigenvectors:
  0.412  0.255  0.333
  0.574  0.092  0.333
  0.013  0.653  0.333
    occupations:
  0.938  0.000  0.000
  0.000  0.938  0.000
  0.000  0.000  0.938
   spin  2
    eigenvalues: 
  0.938  0.938  0.938
    eigenvectors:
  0.410  0.256  0.333
  0.576  0.091  0.333
  0.014  0.653  0.333
    occupations:
  0.938  0.000  0.000
  0.000  0.938  0.000
  0.000  0.000  0.938
atomic mag. moment =     0.000009
atom   16   Tr[ns(na)] (up, down, total) =   2.81408  2.81350  5.62758
   spin  1
    eigenvalues: 
  0.938  0.938  0.938
    eigenvectors:
  0.775  0.000  0.225
  0.113  0.500  0.387
  0.113  0.500  0.387
    occupations:
  0.938  0.000  0.000
  0.000  0.938  0.000
  0.000  0.000  0.938
   spin  2
    eigenvalues: 
  0.937  0.938  0.938
    eigenvectors:
  0.999  0.000  0.001
  0.001  0.500  0.499
  0.001  0.500  0.499
    occupations:
  0.937  0.000  0.000
  0.000  0.938  0.000
  0.000  0.000  0.938
atomic mag. moment =     0.000574
N of occupied +U levels = 114.5526088
 --- exit write_ns ---

 ------ SPIN UP ------------


          k = 0.0000 0.0000 0.0000 (  2733 PWs)   bands (ev):

    -8.0429  -6.6460  -6.6458  -6.6458  -6.6452  -6.5820  -6.5820  -6.5773
     4.0389   4.0389   4.0402   4.0460   5.3532   5.3532   5.3533   6.5101
     6.5101   6.5227   6.5227   6.5275   6.5547   6.5547   6.5577   7.9900
     7.9903   7.9903   7.9913   7.9913   7.9917   8.7854   8.7862   8.7862
     9.2988   9.2988   9.3010   9.5026   9.5026   9.6454   9.8393   9.8393
     9.8853   9.8853   9.8886  10.1697  10.1737  10.1737  10.4427  10.4427
    10.4462  10.5526  10.5532  10.5532  10.8850  10.8850  11.0107  11.0107
    11.0116  11.1524  11.2374  11.2374  11.2381  11.3585  11.3586  11.3586
    13.5578  13.5578  13.6182  13.6182  13.6185  13.7036  13.7036  13.7041
    13.7710  17.8028  17.8044  17.8051  17.8051

          k = 0.2500-0.2500-0.2500 (  2764 PWs)   bands (ev):

    -7.4077  -7.4074  -6.6276  -6.6231  -6.6225  -6.6189  -6.6149  -6.6146
     5.0623   5.0674   5.0766   5.0804   5.0893   5.0906   6.1086   6.1117
     6.3191   6.3265   6.3853   6.3927   6.4646   6.4700   6.8351   6.8430
     7.0166   7.0214   7.3319   7.3338   7.4909   7.4935   7.6569   7.6588
     9.5734   9.5846   9.7667   9.7762   9.8403   9.8479   9.9696   9.9770
    10.1097  10.1169  10.1609  10.1671  10.4842  10.4869  10.6059  10.6060
    10.6365  10.6369  10.8324  10.8339  10.9330  10.9340  11.2160  11.2160
    11.2286  11.2294  11.2730  11.2734  11.3036  11.3045  11.4149  11.4155
    13.0549  13.0562  13.0593  13.0604  13.0668  13.0679  13.0793  13.0804
    16.4994  16.5007  19.6608  19.6641  19.7225

          k = 0.0000 0.0000-0.5000 (  2762 PWs)   bands (ev):

    -7.2719  -7.2701  -6.7765  -6.7740  -6.7739  -6.7735  -6.4735  -6.4692
     5.0235   5.0287   5.0351   5.0395   5.7811   5.7830   6.1159   6.1200
     6.1203   6.1238   6.4099   6.4134   6.6352   6.6443   6.6724   6.6783
     6.7322   6.7379   6.7397   6.7447   8.1682   8.1710   8.1788   8.1809
     9.1939   9.2064   9.8880   9.8923   9.9701   9.9739   9.9876   9.9971
    10.0109  10.0126  10.1172  10.1251  10.3066  10.3134  10.4405  10.4459
    10.4759  10.4781  10.5441  10.5497  10.8864  10.8873  10.9719  10.9737
    11.1253  11.1263  11.2086  11.2096  11.3079  11.3089  11.3231  11.3239
    12.4712  12.4719  12.7288  12.7294  13.5293  13.5298  13.6309  13.6316
    17.6855  17.6875  19.2684  19.2694  19.2699

          k =-0.2500-0.2500-0.2500 (  2764 PWs)   bands (ev):

    -7.4119  -7.4033  -6.6338  -6.6338  -6.6290  -6.6084  -6.6084  -6.6079
     5.0220   5.0220   5.0264   5.1324   5.1324   5.1329   6.0905   6.1338
     6.2518   6.2518   6.2569   6.7117   6.7119   6.7119   6.7331   6.7331
     6.7394   6.9544   6.9544   7.4763   7.4764   7.4764   7.8914   7.8914
     9.4293   9.4342   9.4342   9.6139   9.6139  10.0576  10.0576  10.0629
    10.0744  10.4282  10.4285  10.4285  10.4574  10.4574  10.4574  10.7017
    10.7017  10.7979  10.7979  10.7983  10.8500  11.0279  11.0279  11.0280
    11.2175  11.2175  11.2182  11.2859  11.2859  11.3768  11.3773  11.3773
    13.0548  13.0548  13.0557  13.0750  13.0750  13.0851  13.0851  13.0859
    16.4237  16.5793  19.6380  19.6380  19.6449

 ------ SPIN DOWN ----------


          k = 0.0000 0.0000 0.0000 (  2733 PWs)   bands (ev):

    -8.0420  -6.6451  -6.6447  -6.6445  -6.6445  -6.5805  -6.5805  -6.5770
     4.0395   4.0395   4.0408   4.0471   5.3539   5.3539   5.3539   6.5146
     6.5146   6.5249   6.5249   6.5278   6.5568   6.5568   6.5582   7.9906
     7.9911   7.9911   7.9923   7.9923   7.9928   8.7886   8.7886   8.7891
     9.2998   9.2998   9.3021   9.5067   9.5067   9.6481   9.8369   9.8369
     9.8864   9.8864   9.8886  10.1724  10.1735  10.1735  10.4439  10.4439
    10.4463  10.5532  10.5539  10.5539  10.8799  10.8799  11.0077  11.0077
    11.0081  11.1487  11.2303  11.2303  11.2381  11.3525  11.3555  11.3555
    13.5549  13.5549  13.6144  13.6144  13.6187  13.6993  13.6993  13.7042
    13.7712  17.8029  17.8046  17.8054  17.8054

          k = 0.2500-0.2500-0.2500 (  2764 PWs)   bands (ev):

    -7.4068  -7.4065  -6.6244  -6.6221  -6.6198  -6.6180  -6.6173  -6.6136
     5.0660   5.0674   5.0785   5.0810   5.0868   5.0918   6.1097   6.1124
     6.3248   6.3275   6.3908   6.3933   6.4671   6.4707   6.8424   6.8436
     7.0184   7.0218   7.3284   7.3342   7.4884   7.4942   7.6535   7.6595
     9.5839   9.5846   9.7734   9.7763   9.8431   9.8482   9.9748   9.9770
    10.1150  10.1169  10.1669  10.1670  10.4849  10.4873  10.6008  10.6067
    10.6242  10.6372  10.8318  10.8345  10.9311  10.9346  11.2094  11.2168
    11.2220  11.2295  11.2675  11.2739  11.2950  11.3045  11.4108  11.4159
    13.0417  13.0474  13.0563  13.0606  13.0630  13.0679  13.0746  13.0806
    16.4998  16.5010  19.6600  19.6606  19.7226

          k = 0.0000 0.0000-0.5000 (  2762 PWs)   bands (ev):

    -7.2706  -7.2695  -6.7751  -6.7735  -6.7727  -6.7726  -6.4719  -6.4685
     5.0262   5.0289   5.0384   5.0397   5.7807   5.7834   6.1175   6.1207
     6.1212   6.1248   6.4109   6.4138   6.6411   6.6445   6.6754   6.6785
     6.7339   6.7386   6.7399   6.7456   8.1696   8.1722   8.1790   8.1822
     9.2002   9.2065   9.8910   9.8925   9.9726   9.9741   9.9967   9.9974
    10.0064  10.0128  10.1231  10.1254  10.3121  10.3138  10.4458  10.4460
    10.4728  10.4783  10.5497  10.5503  10.8747  10.8875  10.9652  10.9737
    11.1156  11.1265  11.2010  11.2098  11.2998  11.3089  11.3147  11.3241
    12.4580  12.4719  12.7196  12.7294  13.5235  13.5299  13.6251  13.6317
    17.6859  17.6882  19.2687  19.2696  19.2709

          k =-0.2500-0.2500-0.2500 (  2764 PWs)   bands (ev):

    -7.4113  -7.4021  -6.6288  -6.6283  -6.6283  -6.6111  -6.6111  -6.6075
     5.0269   5.0269   5.0281   5.1284   5.1284   5.1335   6.0943   6.1319
     6.2586   6.2593   6.2593   6.7072   6.7072   6.7100   6.7399   6.7402
     6.7402   6.9595   6.9595   7.4715   7.4715   7.4766   7.8878   7.8878
     9.4392   9.4394   9.4394   9.6194   9.6194  10.0628  10.0628  10.0630
    10.0788  10.4182  10.4219  10.4219  10.4606  10.4606  10.4606  10.6953
    10.6953  10.7995  10.8000  10.8000  10.8444  11.0285  11.0289  11.0289
    11.2104  11.2104  11.2182  11.2866  11.2866  11.3705  11.3743  11.3743
    13.0458  13.0458  13.0557  13.0707  13.0707  13.0814  13.0814  13.0860
    16.4229  16.5809  19.6387  19.6395  19.6395

     the Fermi energy is    11.9413 ev

!    total energy              =    -942.04092993 Ry
     Harris-Foulkes estimate   =    -942.04092992 Ry
     estimated scf accuracy    <          3.6E-09 Ry

     The total energy is the sum of the following terms:

     one-electron contribution =     -56.25206362 Ry
     hartree contribution      =     175.70199131 Ry
     xc contribution           =    -297.58870223 Ry
     ewald contribution        =    -763.85740583 Ry
     Hubbard energy            =      -0.04474955 Ry
     smearing contrib. (-TS)   =       0.00000000 Ry

     total magnetization       =     0.00 Bohr mag/cell
     absolute magnetization    =    12.65 Bohr mag/cell

     convergence has been achieved in   7 iterations

     Writing output data file nio.save
 
     init_run     :     14.02s CPU     15.15s WALL (       1 calls)
     electrons    :    181.72s CPU    192.64s WALL (       1 calls)

     Called by init_run:
     wfcinit      :      0.18s CPU      0.21s WALL (       1 calls)
     potinit      :      1.17s CPU      1.35s WALL (       1 calls)

     Called by electrons:
     c_bands      :     30.88s CPU     32.69s WALL (       7 calls)
     sum_band     :     75.08s CPU     76.41s WALL (       7 calls)
     v_of_rho     :      7.30s CPU      8.23s WALL (       8 calls)
     newd         :     75.83s CPU     83.29s WALL (       8 calls)
     mix_rho      :      1.06s CPU      1.20s WALL (       7 calls)

     Called by c_bands:
     init_us_2    :      0.33s CPU      0.36s WALL (      30 calls)
     cegterg      :     29.85s CPU     31.44s WALL (      14 calls)

     Called by *egterg:
     h_psi        :     21.55s CPU     22.43s WALL (      71 calls)
     s_psi        :      1.93s CPU      1.92s WALL (      73 calls)
     g_psi        :      0.09s CPU      0.10s WALL (      57 calls)
     cdiaghg      :      1.62s CPU      1.63s WALL (      69 calls)

     Called by h_psi:
     add_vuspsi   :      1.81s CPU      1.83s WALL (      71 calls)

     General routines
     calbec       :      3.20s CPU      3.18s WALL (     172 calls)
     fft          :      6.42s CPU      7.17s WALL (     236 calls)
     ffts         :      0.10s CPU      0.10s WALL (      30 calls)
     fftw         :     11.24s CPU     12.37s WALL (    6474 calls)
     interpolate  :      1.06s CPU      1.34s WALL (      30 calls)
     davcio       :      0.00s CPU      0.47s WALL (      88 calls)
 
     Parallel routines
     fft_scatter  :      3.16s CPU      3.71s WALL (    6740 calls)
     EXX routines
 
     PWSCF        :  3m16.11s CPU     3m28.28s WALL

 
   This run was terminated on:  12: 4: 4  17Jun2012            

=------------------------------------------------------------------------------=
   JOB DONE.
=------------------------------------------------------------------------------=
