
     Program PWSCF v.5.0        starts on 17Jun2012 at 11:52:42 

     This program is part of the open-source Quantum ESPRESSO suite
     for quantum simulation of materials; please cite
         "P. Giannozzi et al., J. Phys.:Condens. Matter 21 395502 (2009);
          URL http://www.quantum-espresso.org", 
     in publications or presentations arising from this work. More details at
     http://www.quantum-espresso.org/quote.php

     Parallel version (MPI), running on     4 processors
     K-points division:     npool     =    4

     Current dimensions of program PWSCF are:
     Max number of different atomic species (ntypx) = 10
     Max number of k-points (npk) =  40000
     Max angular momentum in pseudopotentials (lmaxx) =  3
     Waiting for input...
     Reading input from standard input
               file Ni.pbe-nd-rrkjus.UPF: wavefunction(s)  4S renormalized
               file Ni.pbe-nd-rrkjus.UPF: wavefunction(s)  4S renormalized
               file Ni.pbe-nd-rrkjus.UPF: wavefunction(s)  4S renormalized
               file O.pbe-rrkjus.UPF: wavefunction(s)  2S renormalized

     Subspace diagonalization in iterative solution of the eigenvalue problem:
     a serial algorithm will be used

 
     G-vector sticks info
     --------------------
     sticks:   dense  smooth     PW     G-vecs:    dense   smooth      PW
     Sum        2587    1039    295                86547    22075    3287
 


     bravais-lattice index     =            0
     lattice parameter (alat)  =       7.9000  a.u.
     unit-cell volume          =     986.0780 (a.u.)^3
     number of atoms/cell      =           16
     number of atomic types    =            4
     number of electrons       =       128.00
     number of Kohn-Sham states=           77
     kinetic-energy cutoff     =      30.0000  Ry
     charge density cutoff     =     300.0000  Ry
     convergence threshold     =      1.0E-08
     mixing beta               =       0.3000
     number of iterations used =            8  plain     mixing
     Exchange-correlation      =  SLA  PW   PBE  PBE ( 1 4 3 4 0)
     EXX-fraction              =        0.00

     celldm(1)=   7.900000  celldm(2)=   0.000000  celldm(3)=   0.000000
     celldm(4)=   0.000000  celldm(5)=   0.000000  celldm(6)=   0.000000

     crystal axes: (cart. coord. in units of alat)
               a(1) = (   1.000000   1.000000   0.000000 )  
               a(2) = (   1.000000   0.000000   1.000000 )  
               a(3) = (   0.000000   1.000000   1.000000 )  

     reciprocal axes: (cart. coord. in units 2 pi/alat)
               b(1) = (  0.500000  0.500000 -0.500000 )  
               b(2) = (  0.500000 -0.500000  0.500000 )  
               b(3) = ( -0.500000  0.500000  0.500000 )  


     PseudoPot. # 1 for Ni read from file:
     ../pseudo/Ni.pbe-nd-rrkjus.UPF
     MD5 check sum: 8081f0a005c9a5470caab1a58e82ecb2
     Pseudo is Ultrasoft + core correction, Zval = 10.0
     Generated by new atomic code, or converted to UPF format
     Using radial grid of 1203 points,  6 beta functions with: 
                l(1) =   0
                l(2) =   0
                l(3) =   1
                l(4) =   1
                l(5) =   2
                l(6) =   2
     Q(r) pseudized with 0 coefficients 


     PseudoPot. # 2 for Ni read from file:
     ../pseudo/Ni.pbe-nd-rrkjus.UPF
     MD5 check sum: 8081f0a005c9a5470caab1a58e82ecb2
     Pseudo is Ultrasoft + core correction, Zval = 10.0
     Generated by new atomic code, or converted to UPF format
     Using radial grid of 1203 points,  6 beta functions with: 
                l(1) =   0
                l(2) =   0
                l(3) =   1
                l(4) =   1
                l(5) =   2
                l(6) =   2
     Q(r) pseudized with 0 coefficients 


     PseudoPot. # 3 for Ni read from file:
     ../pseudo/Ni.pbe-nd-rrkjus.UPF
     MD5 check sum: 8081f0a005c9a5470caab1a58e82ecb2
     Pseudo is Ultrasoft + core correction, Zval = 10.0
     Generated by new atomic code, or converted to UPF format
     Using radial grid of 1203 points,  6 beta functions with: 
                l(1) =   0
                l(2) =   0
                l(3) =   1
                l(4) =   1
                l(5) =   2
                l(6) =   2
     Q(r) pseudized with 0 coefficients 


     PseudoPot. # 4 for O  read from file:
     ../pseudo/O.pbe-rrkjus.UPF
     MD5 check sum: 390ba29e75625707450f3bd3f0eb6be9
     Pseudo is Ultrasoft, Zval =  6.0
     Generated by new atomic code, or converted to UPF format
     Using radial grid of 1269 points,  4 beta functions with: 
                l(1) =   0
                l(2) =   0
                l(3) =   1
                l(4) =   1
     Q(r) pseudized with 0 coefficients 


     atomic species   valence    mass     pseudopotential
        Ni1           10.00     1.00000     Ni( 1.00)
        Ni2           10.00     1.00000     Ni( 1.00)
        Ni3           10.00     1.00000     Ni( 1.00)
        O1             6.00     1.00000     O ( 1.00)

     Starting magnetic structure 
     atomic species   magnetization
        Ni1          0.500
        Ni2          0.500
        Ni3         -0.500
        O1           0.000
 -----
     simplified LDA+U calculation, Hubbard_lmax = 2
     atomic species  L   Hubbard U  Hubbard alpha
        Ni1          2    0.000000   -0.150000
        Ni2          2    0.000000    0.000000
        Ni3          2    0.000000    0.000000
        O1           1    0.000000    0.000000
 -----

     12 Sym. Ops., with inversion, found



   Cartesian axes

     site n.     atom                  positions (alat units)
         1           Ni1 tau(   1) = (   0.0000000   0.0000000   0.0000000  )
         2           Ni2 tau(   2) = (   1.0000000   0.5000000   0.5000000  )
         3           Ni2 tau(   3) = (   0.5000000   1.0000000   0.5000000  )
         4           Ni2 tau(   4) = (   0.5000000   0.5000000   1.0000000  )
         5           Ni3 tau(   5) = (   0.5000000   0.5000000   0.0000000  )
         6           Ni3 tau(   6) = (   0.5000000   0.0000000   0.5000000  )
         7           Ni3 tau(   7) = (   0.0000000   0.5000000   0.5000000  )
         8           Ni3 tau(   8) = (   1.0000000   1.0000000   1.0000000  )
         9           O1  tau(   9) = (   0.0000000   0.0000000   0.5000000  )
        10           O1  tau(  10) = (   0.5000000   0.5000000   0.5000000  )
        11           O1  tau(  11) = (   0.0000000   0.5000000   1.0000000  )
        12           O1  tau(  12) = (   0.5000000   0.0000000   1.0000000  )
        13           O1  tau(  13) = (   1.0000000   0.5000000   1.0000000  )
        14           O1  tau(  14) = (   0.5000000   1.0000000   1.0000000  )
        15           O1  tau(  15) = (   0.5000000   0.5000000   1.5000000  )
        16           O1  tau(  16) = (   1.0000000   1.0000000   1.5000000  )

     number of k points=     8  gaussian smearing, width (Ry)=  0.0100
                       cart. coord. in units 2pi/alat
        k(    1) = (   0.0000000   0.0000000   0.0000000), wk =   0.1250000
        k(    2) = (   0.2500000  -0.2500000  -0.2500000), wk =   0.3750000
        k(    3) = (   0.0000000   0.0000000  -0.5000000), wk =   0.3750000
        k(    4) = (  -0.2500000  -0.2500000  -0.2500000), wk =   0.1250000
        k(    5) = (   0.0000000   0.0000000   0.0000000), wk =   0.1250000
        k(    6) = (   0.2500000  -0.2500000  -0.2500000), wk =   0.3750000
        k(    7) = (   0.0000000   0.0000000  -0.5000000), wk =   0.3750000
        k(    8) = (  -0.2500000  -0.2500000  -0.2500000), wk =   0.1250000

     Dense  grid:    86547 G-vectors     FFT dimensions: (  64,  64,  64)

     Smooth grid:    22075 G-vectors     FFT dimensions: (  40,  40,  40)

     Largest allocated arrays     est. size (Mb)     dimensions
        Kohn-Sham Wavefunctions         3.25 Mb     (   2764,   77)
        Atomic wavefunctions            3.37 Mb     (   2764,   80)
        NL pseudopotentials             8.77 Mb     (   2764,  208)
        Each V/rho on FFT grid          8.00 Mb     ( 262144,   2)
        Each G-vector array             0.66 Mb     (  86547)
        G-vector shells                 0.00 Mb     (    635)
     Largest temporary arrays     est. size (Mb)     dimensions
        Auxiliary wavefunctions        12.99 Mb     (   2764,  308)
        Each subspace H/S matrix        1.45 Mb     ( 308, 308)
        Each <psi_i|beta_j> matrix      0.24 Mb     (    208,   77)
        Arrays for rho mixing          32.00 Mb     ( 262144,   8)

     Check: negative/imaginary core charge=   -0.000047    0.000000

     The initial density is read from file :
     ./temp/nio.save/charge-density.dat

     Number of +U iterations with fixed ns =  0
     Starting occupations:
 --- enter write_ns ---
 LDA+U parameters:
U( 1)     =  0.00000000
alpha( 1) = -0.15000000
U( 2)     =  0.00000000
alpha( 2) =  0.00000000
U( 3)     =  0.00000000
alpha( 3) =  0.00000000
U( 4)     =  0.00000000
alpha( 4) =  0.00000000
atom    1   Tr[ns(na)] (up, down, total) =   4.96210  3.72839  8.69049
   spin  1
    eigenvalues: 
  0.985  0.985  0.997  0.997  0.997
    eigenvectors:
  0.500  0.500  0.000  0.000  0.000
  0.000  0.000  0.168  0.499  0.333
  0.000  0.000  0.166  0.501  0.333
  0.500  0.500  0.000  0.000  0.000
  0.000  0.000  0.667  0.000  0.333
    occupations:
  0.985  0.000  0.000  0.000  0.000
  0.000  0.997  0.000  0.000  0.000
  0.000  0.000  0.997  0.000  0.000
  0.000  0.000  0.000  0.985  0.000
  0.000  0.000  0.000  0.000  0.997
   spin  2
    eigenvalues: 
  0.370  0.370  0.996  0.996  0.996
    eigenvectors:
  0.003  0.997  0.000  0.000  0.000
  0.000  0.000  0.183  0.483  0.333
  0.000  0.000  0.150  0.516  0.333
  0.997  0.003  0.000  0.000  0.000
  0.000  0.000  0.666  0.001  0.333
    occupations:
  0.370  0.000  0.000  0.000  0.001
  0.000  0.996  0.000  0.001  0.000
  0.000  0.000  0.996 -0.001  0.000
  0.000  0.001 -0.001  0.370  0.000
  0.001  0.000  0.000  0.000  0.996
atomic mag. moment =     1.233715
atom    2   Tr[ns(na)] (up, down, total) =   4.96210  3.72838  8.69048
   spin  1
    eigenvalues: 
  0.985  0.985  0.997  0.997  0.997
    eigenvectors:
  0.750  0.250  0.000  0.000  0.000
  0.000  0.000  0.152  0.500  0.348
  0.000  0.000  0.696  0.000  0.304
  0.250  0.750  0.000  0.000  0.000
  0.000  0.000  0.152  0.500  0.348
    occupations:
  0.985  0.000  0.000  0.000  0.000
  0.000  0.997  0.000  0.000  0.000
  0.000  0.000  0.997  0.000  0.000
  0.000  0.000  0.000  0.985  0.000
  0.000  0.000  0.000  0.000  0.997
   spin  2
    eigenvalues: 
  0.370  0.370  0.996  0.996  0.996
    eigenvectors:
  0.250  0.750  0.000  0.000  0.000
  0.000  0.000  0.166  0.500  0.334
  0.000  0.000  0.667  0.000  0.333
  0.750  0.250  0.000  0.000  0.000
  0.000  0.000  0.166  0.500  0.334
    occupations:
  0.370  0.000  0.000  0.000  0.001
  0.000  0.996  0.000  0.001  0.000
  0.000  0.000  0.996 -0.001  0.000
  0.000  0.001 -0.001  0.370  0.000
  0.001  0.000  0.000  0.000  0.996
atomic mag. moment =     1.233723
atom    3   Tr[ns(na)] (up, down, total) =   4.96210  3.72838  8.69048
   spin  1
    eigenvalues: 
  0.985  0.985  0.997  0.997  0.997
    eigenvectors:
  0.750  0.250  0.000  0.000  0.000
  0.000  0.000  0.696  0.000  0.304
  0.000  0.000  0.152  0.500  0.348
  0.250  0.750  0.000  0.000  0.000
  0.000  0.000  0.152  0.500  0.348
    occupations:
  0.985  0.000  0.000  0.000  0.000
  0.000  0.997  0.000  0.000  0.000
  0.000  0.000  0.997  0.000  0.000
  0.000  0.000  0.000  0.985  0.000
  0.000  0.000  0.000  0.000  0.997
   spin  2
    eigenvalues: 
  0.370  0.370  0.996  0.996  0.996
    eigenvectors:
  0.250  0.750  0.000  0.000  0.000
  0.000  0.000  0.667  0.000  0.333
  0.000  0.000  0.166  0.500  0.334
  0.750  0.250  0.000  0.000  0.000
  0.000  0.000  0.166  0.500  0.334
    occupations:
  0.370  0.000  0.000  0.000  0.001
  0.000  0.996  0.000  0.001  0.000
  0.000  0.000  0.996 -0.001  0.000
  0.000  0.001 -0.001  0.370  0.000
  0.001  0.000  0.000  0.000  0.996
atomic mag. moment =     1.233723
atom    4   Tr[ns(na)] (up, down, total) =   4.96210  3.72838  8.69048
   spin  1
    eigenvalues: 
  0.985  0.985  0.997  0.997  0.997
    eigenvectors:
  0.000  1.000  0.000  0.000  0.000
  0.000  0.000  0.152  0.500  0.348
  0.000  0.000  0.152  0.500  0.348
  1.000  0.000  0.000  0.000  0.000
  0.000  0.000  0.696  0.000  0.304
    occupations:
  0.985  0.000  0.000  0.000  0.000
  0.000  0.997  0.000  0.000  0.000
  0.000  0.000  0.997  0.000  0.000
  0.000  0.000  0.000  0.985  0.000
  0.000  0.000  0.000  0.000  0.997
   spin  2
    eigenvalues: 
  0.370  0.370  0.996  0.996  0.996
    eigenvectors:
  1.000  0.000  0.000  0.000  0.000
  0.000  0.000  0.166  0.500  0.334
  0.000  0.000  0.166  0.500  0.334
  0.000  1.000  0.000  0.000  0.000
  0.000  0.000  0.667  0.000  0.333
    occupations:
  0.370  0.000  0.000  0.000  0.001
  0.000  0.996  0.000  0.001  0.000
  0.000  0.000  0.996 -0.001  0.000
  0.000  0.001 -0.001  0.370  0.000
  0.001  0.000  0.000  0.000  0.996
atomic mag. moment =     1.233723
atom    5   Tr[ns(na)] (up, down, total) =   3.72838  4.96210  8.69049
   spin  1
    eigenvalues: 
  0.370  0.370  0.996  0.996  0.996
    eigenvectors:
  1.000  0.000  0.000  0.000  0.000
  0.000  0.000  0.166  0.500  0.334
  0.000  0.000  0.166  0.500  0.334
  0.000  1.000  0.000  0.000  0.000
  0.000  0.000  0.667  0.000  0.333
    occupations:
  0.370  0.000  0.000  0.000  0.001
  0.000  0.996  0.000  0.001  0.000
  0.000  0.000  0.996 -0.001  0.000
  0.000  0.001 -0.001  0.370  0.000
  0.001  0.000  0.000  0.000  0.996
   spin  2
    eigenvalues: 
  0.985  0.985  0.997  0.997  0.997
    eigenvectors:
  0.000  1.000  0.000  0.000  0.000
  0.000  0.000  0.152  0.500  0.348
  0.000  0.000  0.152  0.500  0.348
  1.000  0.000  0.000  0.000  0.000
  0.000  0.000  0.696  0.000  0.304
    occupations:
  0.985  0.000  0.000  0.000  0.000
  0.000  0.997  0.000  0.000  0.000
  0.000  0.000  0.997  0.000  0.000
  0.000  0.000  0.000  0.985  0.000
  0.000  0.000  0.000  0.000  0.997
atomic mag. moment =    -1.233722
atom    6   Tr[ns(na)] (up, down, total) =   3.72838  4.96210  8.69049
   spin  1
    eigenvalues: 
  0.370  0.370  0.996  0.996  0.996
    eigenvectors:
  0.250  0.750  0.000  0.000  0.000
  0.000  0.000  0.667  0.000  0.333
  0.000  0.000  0.166  0.500  0.334
  0.750  0.250  0.000  0.000  0.000
  0.000  0.000  0.166  0.500  0.334
    occupations:
  0.370  0.000  0.000  0.000  0.001
  0.000  0.996  0.000  0.001  0.000
  0.000  0.000  0.996 -0.001  0.000
  0.000  0.001 -0.001  0.370  0.000
  0.001  0.000  0.000  0.000  0.996
   spin  2
    eigenvalues: 
  0.985  0.985  0.997  0.997  0.997
    eigenvectors:
  0.750  0.250  0.000  0.000  0.000
  0.000  0.000  0.696  0.000  0.304
  0.000  0.000  0.152  0.500  0.348
  0.250  0.750  0.000  0.000  0.000
  0.000  0.000  0.152  0.500  0.348
    occupations:
  0.985  0.000  0.000  0.000  0.000
  0.000  0.997  0.000  0.000  0.000
  0.000  0.000  0.997  0.000  0.000
  0.000  0.000  0.000  0.985  0.000
  0.000  0.000  0.000  0.000  0.997
atomic mag. moment =    -1.233722
atom    7   Tr[ns(na)] (up, down, total) =   3.72838  4.96210  8.69049
   spin  1
    eigenvalues: 
  0.370  0.370  0.996  0.996  0.996
    eigenvectors:
  0.250  0.750  0.000  0.000  0.000
  0.000  0.000  0.166  0.500  0.334
  0.000  0.000  0.667  0.000  0.333
  0.750  0.250  0.000  0.000  0.000
  0.000  0.000  0.166  0.500  0.334
    occupations:
  0.370  0.000  0.000  0.000  0.001
  0.000  0.996  0.000  0.001  0.000
  0.000  0.000  0.996 -0.001  0.000
  0.000  0.001 -0.001  0.370  0.000
  0.001  0.000  0.000  0.000  0.996
   spin  2
    eigenvalues: 
  0.985  0.985  0.997  0.997  0.997
    eigenvectors:
  0.750  0.250  0.000  0.000  0.000
  0.000  0.000  0.152  0.500  0.348
  0.000  0.000  0.696  0.000  0.304
  0.250  0.750  0.000  0.000  0.000
  0.000  0.000  0.152  0.500  0.348
    occupations:
  0.985  0.000  0.000  0.000  0.000
  0.000  0.997  0.000  0.000  0.000
  0.000  0.000  0.997  0.000  0.000
  0.000  0.000  0.000  0.985  0.000
  0.000  0.000  0.000  0.000  0.997
atomic mag. moment =    -1.233722
atom    8   Tr[ns(na)] (up, down, total) =   3.72839  4.96210  8.69049
   spin  1
    eigenvalues: 
  0.370  0.370  0.996  0.996  0.996
    eigenvectors:
  0.070  0.930  0.000  0.000  0.000
  0.000  0.000  0.053  0.614  0.333
  0.000  0.000  0.317  0.349  0.333
  0.930  0.070  0.000  0.000  0.000
  0.000  0.000  0.630  0.037  0.333
    occupations:
  0.370  0.000  0.000  0.000  0.001
  0.000  0.996  0.000  0.001  0.000
  0.000  0.000  0.996 -0.001  0.000
  0.000  0.001 -0.001  0.370  0.000
  0.001  0.000  0.000  0.000  0.996
   spin  2
    eigenvalues: 
  0.985  0.985  0.997  0.997  0.997
    eigenvectors:
  0.782  0.218  0.000  0.000  0.000
  0.000  0.000  0.187  0.479  0.333
  0.000  0.000  0.147  0.520  0.333
  0.218  0.782  0.000  0.000  0.000
  0.000  0.000  0.666  0.001  0.333
    occupations:
  0.985  0.000  0.000  0.000  0.000
  0.000  0.997  0.000  0.000  0.000
  0.000  0.000  0.997  0.000  0.000
  0.000  0.000  0.000  0.985  0.000
  0.000  0.000  0.000  0.000  0.997
atomic mag. moment =    -1.233714
atom    9   Tr[ns(na)] (up, down, total) =   2.81402  2.81402  5.62805
   spin  1
    eigenvalues: 
  0.938  0.938  0.938
    eigenvectors:
  0.670  0.000  0.330
  0.165  0.500  0.335
  0.165  0.500  0.335
    occupations:
  0.938  0.000  0.000
  0.000  0.938  0.000
  0.000  0.000  0.938
   spin  2
    eigenvalues: 
  0.938  0.938  0.938
    eigenvectors:
  0.670  0.000  0.330
  0.165  0.500  0.335
  0.165  0.500  0.335
    occupations:
  0.938  0.000  0.000
  0.000  0.938  0.000
  0.000  0.000  0.938
atomic mag. moment =     0.000000
atom   10   Tr[ns(na)] (up, down, total) =   2.81402  2.81403  5.62805
   spin  1
    eigenvalues: 
  0.938  0.938  0.938
    eigenvectors:
  0.383  0.283  0.333
  0.594  0.073  0.333
  0.023  0.644  0.333
    occupations:
  0.938  0.000  0.000
  0.000  0.938  0.000
  0.000  0.000  0.938
   spin  2
    eigenvalues: 
  0.938  0.938  0.938
    eigenvectors:
  0.554  0.113  0.333
  0.439  0.227  0.333
  0.007  0.660  0.333
    occupations:
  0.938  0.000  0.000
  0.000  0.938  0.000
  0.000  0.000  0.938
atomic mag. moment =    -0.000001
atom   11   Tr[ns(na)] (up, down, total) =   2.81402  2.81402  5.62805
   spin  1
    eigenvalues: 
  0.938  0.938  0.938
    eigenvectors:
  0.165  0.500  0.335
  0.165  0.500  0.335
  0.670  0.000  0.330
    occupations:
  0.938  0.000  0.000
  0.000  0.938  0.000
  0.000  0.000  0.938
   spin  2
    eigenvalues: 
  0.938  0.938  0.938
    eigenvectors:
  0.165  0.500  0.335
  0.165  0.500  0.335
  0.670  0.000  0.330
    occupations:
  0.938  0.000  0.000
  0.000  0.938  0.000
  0.000  0.000  0.938
atomic mag. moment =     0.000000
atom   12   Tr[ns(na)] (up, down, total) =   2.81402  2.81402  5.62805
   spin  1
    eigenvalues: 
  0.938  0.938  0.938
    eigenvectors:
  0.165  0.500  0.335
  0.670  0.000  0.330
  0.165  0.500  0.335
    occupations:
  0.938  0.000  0.000
  0.000  0.938  0.000
  0.000  0.000  0.938
   spin  2
    eigenvalues: 
  0.938  0.938  0.938
    eigenvectors:
  0.165  0.500  0.335
  0.670  0.000  0.330
  0.165  0.500  0.335
    occupations:
  0.938  0.000  0.000
  0.000  0.938  0.000
  0.000  0.000  0.938
atomic mag. moment =     0.000000
atom   13   Tr[ns(na)] (up, down, total) =   2.81402  2.81402  5.62805
   spin  1
    eigenvalues: 
  0.938  0.938  0.938
    eigenvectors:
  0.165  0.500  0.335
  0.165  0.500  0.335
  0.670  0.000  0.330
    occupations:
  0.938  0.000  0.000
  0.000  0.938  0.000
  0.000  0.000  0.938
   spin  2
    eigenvalues: 
  0.938  0.938  0.938
    eigenvectors:
  0.165  0.500  0.335
  0.165  0.500  0.335
  0.670  0.000  0.330
    occupations:
  0.938  0.000  0.000
  0.000  0.938  0.000
  0.000  0.000  0.938
atomic mag. moment =     0.000000
atom   14   Tr[ns(na)] (up, down, total) =   2.81402  2.81402  5.62805
   spin  1
    eigenvalues: 
  0.938  0.938  0.938
    eigenvectors:
  0.165  0.500  0.335
  0.670  0.000  0.330
  0.165  0.500  0.335
    occupations:
  0.938  0.000  0.000
  0.000  0.938  0.000
  0.000  0.000  0.938
   spin  2
    eigenvalues: 
  0.938  0.938  0.938
    eigenvectors:
  0.165  0.500  0.335
  0.670  0.000  0.330
  0.165  0.500  0.335
    occupations:
  0.938  0.000  0.000
  0.000  0.938  0.000
  0.000  0.000  0.938
atomic mag. moment =     0.000000
atom   15   Tr[ns(na)] (up, down, total) =   2.81402  2.81403  5.62805
   spin  1
    eigenvalues: 
  0.938  0.938  0.938
    eigenvectors:
  0.383  0.283  0.333
  0.594  0.073  0.333
  0.023  0.644  0.333
    occupations:
  0.938  0.000  0.000
  0.000  0.938  0.000
  0.000  0.000  0.938
   spin  2
    eigenvalues: 
  0.938  0.938  0.938
    eigenvectors:
  0.554  0.113  0.333
  0.439  0.227  0.333
  0.007  0.660  0.333
    occupations:
  0.938  0.000  0.000
  0.000  0.938  0.000
  0.000  0.000  0.938
atomic mag. moment =    -0.000001
atom   16   Tr[ns(na)] (up, down, total) =   2.81402  2.81402  5.62805
   spin  1
    eigenvalues: 
  0.938  0.938  0.938
    eigenvectors:
  0.670  0.000  0.330
  0.165  0.500  0.335
  0.165  0.500  0.335
    occupations:
  0.938  0.000  0.000
  0.000  0.938  0.000
  0.000  0.000  0.938
   spin  2
    eigenvalues: 
  0.938  0.938  0.938
    eigenvectors:
  0.670  0.000  0.330
  0.165  0.500  0.335
  0.165  0.500  0.335
    occupations:
  0.938  0.000  0.000
  0.000  0.938  0.000
  0.000  0.000  0.938
atomic mag. moment =     0.000000
N of occupied +U levels = 114.5482751
 --- exit write_ns ---
 Atomic wfc used for LDA+U Projector are NOT orthogonalized
     Starting wfc from file

     total cpu time spent up to now is       15.4 secs

     per-process dynamical memory:    86.2 Mb

     Self-consistent Calculation

     iteration #  1     ecut=    30.00 Ry     beta=0.30
     Davidson diagonalization with overlap
     c_bands:  1 eigenvalues not converged
     ethr =  8.16E-12,  avg # of iterations = 17.0
 --- enter write_ns ---
 LDA+U parameters:
U( 1)     =  0.00000000
alpha( 1) = -0.15000000
U( 2)     =  0.00000000
alpha( 2) =  0.00000000
U( 3)     =  0.00000000
alpha( 3) =  0.00000000
U( 4)     =  0.00000000
alpha( 4) =  0.00000000
atom    1   Tr[ns(na)] (up, down, total) =   4.96406  3.75651  8.72057
   spin  1
    eigenvalues: 
  0.986  0.986  0.998  0.998  0.998
    eigenvectors:
  0.237  0.763  0.000  0.000  0.000
  0.000  0.000  0.172  0.495  0.333
  0.000  0.000  0.161  0.505  0.333
  0.763  0.237  0.000  0.000  0.000
  0.000  0.000  0.667  0.000  0.333
    occupations:
  0.986  0.000  0.000  0.000  0.000
  0.000  0.998  0.000  0.000  0.000
  0.000  0.000  0.998  0.000  0.000
  0.000  0.000  0.000  0.986  0.000
  0.000  0.000  0.000  0.000  0.998
   spin  2
    eigenvalues: 
  0.384  0.384  0.996  0.996  0.996
    eigenvectors:
  0.679  0.321  0.000  0.000  0.000
  0.000  0.000  0.168  0.498  0.333
  0.000  0.000  0.165  0.502  0.333
  0.321  0.679  0.000  0.000  0.000
  0.000  0.000  0.667  0.000  0.333
    occupations:
  0.384  0.000  0.000  0.000  0.001
  0.000  0.996  0.000  0.001  0.000
  0.000  0.000  0.996 -0.001  0.000
  0.000  0.001 -0.001  0.384  0.000
  0.001  0.000  0.000  0.000  0.996
atomic mag. moment =     1.207554
atom    2   Tr[ns(na)] (up, down, total) =   4.96209  3.72764  8.68973
   spin  1
    eigenvalues: 
  0.985  0.985  0.997  0.997  0.997
    eigenvectors:
  0.750  0.250  0.000  0.000  0.000
  0.000  0.000  0.500  0.282  0.218
  0.000  0.000  0.000  0.436  0.564
  0.250  0.750  0.000  0.000  0.000
  0.000  0.000  0.500  0.282  0.218
    occupations:
  0.985  0.000  0.000  0.000  0.000
  0.000  0.997  0.000  0.000  0.000
  0.000  0.000  0.997  0.000  0.000
  0.000  0.000  0.000  0.985  0.000
  0.000  0.000  0.000  0.000  0.997
   spin  2
    eigenvalues: 
  0.370  0.370  0.995  0.996  0.996
    eigenvectors:
  0.250  0.750  0.000  0.000  0.000
  0.000  0.000  0.005  0.500  0.495
  0.000  0.000  0.991  0.000  0.009
  0.750  0.250  0.000  0.000  0.000
  0.000  0.000  0.005  0.500  0.495
    occupations:
  0.370  0.000  0.000  0.000  0.001
  0.000  0.996  0.000  0.001  0.000
  0.000  0.000  0.995  0.000  0.000
  0.000  0.001  0.000  0.370  0.000
  0.001  0.000  0.000  0.000  0.996
atomic mag. moment =     1.234453
atom    3   Tr[ns(na)] (up, down, total) =   4.96209  3.72764  8.68973
   spin  1
    eigenvalues: 
  0.985  0.985  0.997  0.997  0.997
    eigenvectors:
  0.750  0.250  0.000  0.000  0.000
  0.000  0.000  0.000  0.436  0.564
  0.000  0.000  0.500  0.282  0.218
  0.250  0.750  0.000  0.000  0.000
  0.000  0.000  0.500  0.282  0.218
    occupations:
  0.985  0.000  0.000  0.000  0.000
  0.000  0.997  0.000  0.000  0.000
  0.000  0.000  0.997  0.000  0.000
  0.000  0.000  0.000  0.985  0.000
  0.000  0.000  0.000  0.000  0.997
   spin  2
    eigenvalues: 
  0.370  0.370  0.995  0.996  0.996
    eigenvectors:
  0.250  0.750  0.000  0.000  0.000
  0.000  0.000  0.991  0.000  0.009
  0.000  0.000  0.005  0.500  0.495
  0.750  0.250  0.000  0.000  0.000
  0.000  0.000  0.005  0.500  0.495
    occupations:
  0.370  0.000  0.000  0.000  0.001
  0.000  0.995  0.000  0.000  0.000
  0.000  0.000  0.996 -0.001  0.000
  0.000  0.000 -0.001  0.370  0.000
  0.001  0.000  0.000  0.000  0.996
atomic mag. moment =     1.234453
atom    4   Tr[ns(na)] (up, down, total) =   4.96209  3.72764  8.68973
   spin  1
    eigenvalues: 
  0.985  0.985  0.997  0.997  0.997
    eigenvectors:
  0.000  1.000  0.000  0.000  0.000
  0.000  0.000  0.500  0.282  0.218
  0.000  0.000  0.500  0.282  0.218
  1.000  0.000  0.000  0.000  0.000
  0.000  0.000  0.000  0.436  0.564
    occupations:
  0.985  0.000  0.000  0.000  0.000
  0.000  0.997  0.000  0.000  0.000
  0.000  0.000  0.997  0.000  0.000
  0.000  0.000  0.000  0.985  0.000
  0.000  0.000  0.000  0.000  0.997
   spin  2
    eigenvalues: 
  0.370  0.370  0.995  0.996  0.996
    eigenvectors:
  1.000  0.000  0.000  0.000  0.000
  0.000  0.000  0.005  0.500  0.495
  0.000  0.000  0.005  0.500  0.495
  0.000  1.000  0.000  0.000  0.000
  0.000  0.000  0.991  0.000  0.009
    occupations:
  0.370  0.000  0.000  0.000  0.000
  0.000  0.996  0.000  0.001  0.000
  0.000  0.000  0.996 -0.001  0.000
  0.000  0.001 -0.001  0.370  0.000
  0.000  0.000  0.000  0.000  0.995
atomic mag. moment =     1.234453
atom    5   Tr[ns(na)] (up, down, total) =   3.72829  4.96201  8.69030
   spin  1
    eigenvalues: 
  0.370  0.371  0.996  0.996  0.996
    eigenvectors:
  1.000  0.000  0.000  0.000  0.000
  0.000  0.000  0.500  0.165  0.335
  0.000  0.000  0.500  0.165  0.335
  0.000  1.000  0.000  0.000  0.000
  0.000  0.000  0.000  0.671  0.329
    occupations:
  0.370  0.000  0.000  0.000  0.001
  0.000  0.996  0.000  0.001  0.000
  0.000  0.000  0.996 -0.001  0.000
  0.000  0.001 -0.001  0.371  0.000
  0.001  0.000  0.000  0.000  0.996
   spin  2
    eigenvalues: 
  0.985  0.985  0.997  0.997  0.997
    eigenvectors:
  1.000  0.000  0.000  0.000  0.000
  0.000  0.000  0.001  0.500  0.499
  0.000  0.000  0.001  0.500  0.499
  0.000  1.000  0.000  0.000  0.000
  0.000  0.000  0.998  0.000  0.002
    occupations:
  0.985  0.000  0.000  0.000  0.000
  0.000  0.997  0.000  0.000  0.000
  0.000  0.000  0.997  0.000  0.000
  0.000  0.000  0.000  0.985  0.000
  0.000  0.000  0.000  0.000  0.997
atomic mag. moment =    -1.233712
atom    6   Tr[ns(na)] (up, down, total) =   3.72829  4.96201  8.69030
   spin  1
    eigenvalues: 
  0.370  0.371  0.996  0.996  0.996
    eigenvectors:
  0.250  0.750  0.000  0.000  0.000
  0.000  0.000  0.000  0.671  0.329
  0.000  0.000  0.500  0.165  0.335
  0.750  0.250  0.000  0.000  0.000
  0.000  0.000  0.500  0.165  0.335
    occupations:
  0.370  0.000  0.000  0.000  0.001
  0.000  0.996  0.000  0.001  0.000
  0.000  0.000  0.996 -0.001  0.000
  0.000  0.001 -0.001  0.370  0.000
  0.001  0.000  0.000  0.000  0.996
   spin  2
    eigenvalues: 
  0.985  0.985  0.997  0.997  0.997
    eigenvectors:
  0.250  0.750  0.000  0.000  0.000
  0.000  0.000  0.998  0.000  0.002
  0.000  0.000  0.001  0.500  0.499
  0.750  0.250  0.000  0.000  0.000
  0.000  0.000  0.001  0.500  0.499
    occupations:
  0.985  0.000  0.000  0.000  0.000
  0.000  0.997  0.000  0.000  0.000
  0.000  0.000  0.997  0.000  0.000
  0.000  0.000  0.000  0.985  0.000
  0.000  0.000  0.000  0.000  0.997
atomic mag. moment =    -1.233712
atom    7   Tr[ns(na)] (up, down, total) =   3.72829  4.96201  8.69030
   spin  1
    eigenvalues: 
  0.370  0.371  0.996  0.996  0.996
    eigenvectors:
  0.250  0.750  0.000  0.000  0.000
  0.000  0.000  0.500  0.165  0.335
  0.000  0.000  0.000  0.671  0.329
  0.750  0.250  0.000  0.000  0.000
  0.000  0.000  0.500  0.165  0.335
    occupations:
  0.370  0.000  0.000  0.000  0.001
  0.000  0.996  0.000  0.001  0.000
  0.000  0.000  0.996 -0.001  0.000
  0.000  0.001 -0.001  0.370  0.000
  0.001  0.000  0.000  0.000  0.996
   spin  2
    eigenvalues: 
  0.985  0.985  0.997  0.997  0.997
    eigenvectors:
  0.250  0.750  0.000  0.000  0.000
  0.000  0.000  0.001  0.500  0.499
  0.000  0.000  0.998  0.000  0.002
  0.750  0.250  0.000  0.000  0.000
  0.000  0.000  0.001  0.500  0.499
    occupations:
  0.985  0.000  0.000  0.000  0.000
  0.000  0.997  0.000  0.000  0.000
  0.000  0.000  0.997  0.000  0.000
  0.000  0.000  0.000  0.985  0.000
  0.000  0.000  0.000  0.000  0.997
atomic mag. moment =    -1.233712
atom    8   Tr[ns(na)] (up, down, total) =   3.72637  4.95998  8.68635
   spin  1
    eigenvalues: 
  0.369  0.369  0.996  0.996  0.996
    eigenvectors:
  0.612  0.388  0.000  0.000  0.000
  0.000  0.000  0.101  0.565  0.333
  0.000  0.000  0.242  0.425  0.333
  0.388  0.612  0.000  0.000  0.000
  0.000  0.000  0.657  0.010  0.333
    occupations:
  0.369  0.000  0.000  0.000  0.001
  0.000  0.996  0.000  0.001  0.000
  0.000  0.000  0.996 -0.001  0.000
  0.000  0.001 -0.001  0.369  0.000
  0.001  0.000  0.000  0.000  0.996
   spin  2
    eigenvalues: 
  0.984  0.984  0.997  0.997  0.997
    eigenvectors:
  0.594  0.405  0.000  0.000  0.000
  0.000  0.000  0.333  0.130  0.537
  0.000  0.000  0.333  0.207  0.460
  0.405  0.594  0.000  0.000  0.000
  0.000  0.000  0.333  0.664  0.003
    occupations:
  0.984  0.000  0.000  0.000  0.000
  0.000  0.997  0.000  0.000  0.000
  0.000  0.000  0.997  0.000  0.000
  0.000  0.000  0.000  0.984  0.000
  0.000  0.000  0.000  0.000  0.997
atomic mag. moment =    -1.233613
atom    9   Tr[ns(na)] (up, down, total) =   2.81401  2.81183  5.62584
   spin  1
    eigenvalues: 
  0.938  0.938  0.938
    eigenvectors:
  0.699  0.000  0.301
  0.150  0.500  0.350
  0.150  0.500  0.350
    occupations:
  0.938  0.000  0.000
  0.000  0.938  0.000
  0.000  0.000  0.938
   spin  2
    eigenvalues: 
  0.936  0.938  0.938
    eigenvectors:
  1.000  0.000  0.000
  0.000  0.500  0.500
  0.000  0.500  0.500
    occupations:
  0.936  0.000  0.000
  0.000  0.938  0.000
  0.000  0.000  0.938
atomic mag. moment =     0.002178
atom   10   Tr[ns(na)] (up, down, total) =   2.81401  2.81398  5.62800
   spin  1
    eigenvalues: 
  0.938  0.938  0.938
    eigenvectors:
  0.500  0.167  0.333
  0.500  0.167  0.333
  0.000  0.667  0.333
    occupations:
  0.938  0.000  0.000
  0.000  0.938  0.000
  0.000  0.000  0.938
   spin  2
    eigenvalues: 
  0.938  0.938  0.938
    eigenvectors:
  0.430  0.237  0.333
  0.561  0.105  0.333
  0.009  0.658  0.333
    occupations:
  0.938  0.000  0.000
  0.000  0.938  0.000
  0.000  0.000  0.938
atomic mag. moment =     0.000032
atom   11   Tr[ns(na)] (up, down, total) =   2.81401  2.81183  5.62584
   spin  1
    eigenvalues: 
  0.938  0.938  0.938
    eigenvectors:
  0.150  0.500  0.350
  0.150  0.500  0.350
  0.699  0.000  0.301
    occupations:
  0.938  0.000  0.000
  0.000  0.938  0.000
  0.000  0.000  0.938
   spin  2
    eigenvalues: 
  0.936  0.938  0.938
    eigenvectors:
  0.000  0.500  0.500
  0.000  0.500  0.500
  1.000  0.000  0.000
    occupations:
  0.938  0.000  0.000
  0.000  0.938  0.000
  0.000  0.000  0.936
atomic mag. moment =     0.002178
atom   12   Tr[ns(na)] (up, down, total) =   2.81401  2.81183  5.62584
   spin  1
    eigenvalues: 
  0.938  0.938  0.938
    eigenvectors:
  0.150  0.500  0.350
  0.699  0.000  0.301
  0.150  0.500  0.350
    occupations:
  0.938  0.000  0.000
  0.000  0.938  0.000
  0.000  0.000  0.938
   spin  2
    eigenvalues: 
  0.936  0.938  0.938
    eigenvectors:
  0.000  0.500  0.500
  1.000  0.000  0.000
  0.000  0.500  0.500
    occupations:
  0.938  0.000  0.000
  0.000  0.936  0.000
  0.000  0.000  0.938
atomic mag. moment =     0.002178
atom   13   Tr[ns(na)] (up, down, total) =   2.81401  2.81183  5.62584
   spin  1
    eigenvalues: 
  0.938  0.938  0.938
    eigenvectors:
  0.150  0.500  0.350
  0.150  0.500  0.350
  0.699  0.000  0.301
    occupations:
  0.938  0.000  0.000
  0.000  0.938  0.000
  0.000  0.000  0.938
   spin  2
    eigenvalues: 
  0.936  0.938  0.938
    eigenvectors:
  0.000  0.500  0.500
  0.000  0.500  0.500
  1.000  0.000  0.000
    occupations:
  0.938  0.000  0.000
  0.000  0.938  0.000
  0.000  0.000  0.936
atomic mag. moment =     0.002178
atom   14   Tr[ns(na)] (up, down, total) =   2.81401  2.81183  5.62584
   spin  1
    eigenvalues: 
  0.938  0.938  0.938
    eigenvectors:
  0.150  0.500  0.350
  0.699  0.000  0.301
  0.150  0.500  0.350
    occupations:
  0.938  0.000  0.000
  0.000  0.938  0.000
  0.000  0.000  0.938
   spin  2
    eigenvalues: 
  0.936  0.938  0.938
    eigenvectors:
  0.000  0.500  0.500
  1.000  0.000  0.000
  0.000  0.500  0.500
    occupations:
  0.938  0.000  0.000
  0.000  0.936  0.000
  0.000  0.000  0.938
atomic mag. moment =     0.002178
atom   15   Tr[ns(na)] (up, down, total) =   2.81401  2.81398  5.62800
   spin  1
    eigenvalues: 
  0.938  0.938  0.938
    eigenvectors:
  0.397  0.270  0.333
  0.585  0.082  0.333
  0.018  0.648  0.333
    occupations:
  0.938  0.000  0.000
  0.000  0.938  0.000
  0.000  0.000  0.938
   spin  2
    eigenvalues: 
  0.938  0.938  0.938
    eigenvectors:
  0.427  0.239  0.333
  0.563  0.103  0.333
  0.009  0.657  0.333
    occupations:
  0.938  0.000  0.000
  0.000  0.938  0.000
  0.000  0.000  0.938
atomic mag. moment =     0.000032
atom   16   Tr[ns(na)] (up, down, total) =   2.81401  2.81183  5.62584
   spin  1
    eigenvalues: 
  0.938  0.938  0.938
    eigenvectors:
  0.699  0.000  0.301
  0.150  0.500  0.350
  0.150  0.500  0.350
    occupations:
  0.938  0.000  0.000
  0.000  0.938  0.000
  0.000  0.000  0.938
   spin  2
    eigenvalues: 
  0.936  0.938  0.938
    eigenvectors:
  1.000  0.000  0.000
  0.000  0.500  0.500
  0.000  0.500  0.500
    occupations:
  0.936  0.000  0.000
  0.000  0.938  0.000
  0.000  0.000  0.938
atomic mag. moment =     0.002178
N of occupied +U levels = 114.5580083
 --- exit write_ns ---

     total cpu time spent up to now is       49.1 secs

     total energy              =    -942.09192447 Ry
     Harris-Foulkes estimate   =    -942.09217535 Ry
     estimated scf accuracy    <       0.00058347 Ry

     total magnetization       =     0.00 Bohr mag/cell
     absolute magnetization    =    12.64 Bohr mag/cell

     iteration #  2     ecut=    30.00 Ry     beta=0.30
     Davidson diagonalization with overlap
     ethr =  4.56E-07,  avg # of iterations =  2.0

     total cpu time spent up to now is       75.8 secs

     total energy              =    -942.09203525 Ry
     Harris-Foulkes estimate   =    -942.09215410 Ry
     estimated scf accuracy    <       0.00041923 Ry

     total magnetization       =     0.00 Bohr mag/cell
     absolute magnetization    =    12.65 Bohr mag/cell

     iteration #  3     ecut=    30.00 Ry     beta=0.30
     Davidson diagonalization with overlap
     ethr =  3.28E-07,  avg # of iterations =  1.9

     total cpu time spent up to now is      102.3 secs

     total energy              =    -942.09209477 Ry
     Harris-Foulkes estimate   =    -942.09209521 Ry
     estimated scf accuracy    <       0.00000895 Ry

     total magnetization       =     0.00 Bohr mag/cell
     absolute magnetization    =    12.65 Bohr mag/cell

     iteration #  4     ecut=    30.00 Ry     beta=0.30
     Davidson diagonalization with overlap
     ethr =  6.99E-09,  avg # of iterations =  2.0

     total cpu time spent up to now is      128.9 secs

     total energy              =    -942.09209664 Ry
     Harris-Foulkes estimate   =    -942.09209558 Ry
     estimated scf accuracy    <       0.00000291 Ry

     total magnetization       =     0.00 Bohr mag/cell
     absolute magnetization    =    12.64 Bohr mag/cell

     iteration #  5     ecut=    30.00 Ry     beta=0.30
     Davidson diagonalization with overlap
     ethr =  2.27E-09,  avg # of iterations =  1.5

     total cpu time spent up to now is      155.5 secs

     total energy              =    -942.09209701 Ry
     Harris-Foulkes estimate   =    -942.09209689 Ry
     estimated scf accuracy    <       0.00000073 Ry

     total magnetization       =     0.00 Bohr mag/cell
     absolute magnetization    =    12.64 Bohr mag/cell

     iteration #  6     ecut=    30.00 Ry     beta=0.30
     Davidson diagonalization with overlap
     ethr =  5.72E-10,  avg # of iterations =  1.5

     total cpu time spent up to now is      182.1 secs

     total energy              =    -942.09209713 Ry
     Harris-Foulkes estimate   =    -942.09209710 Ry
     estimated scf accuracy    <       0.00000010 Ry

     total magnetization       =     0.00 Bohr mag/cell
     absolute magnetization    =    12.64 Bohr mag/cell

     iteration #  7     ecut=    30.00 Ry     beta=0.30
     Davidson diagonalization with overlap
     ethr =  7.44E-11,  avg # of iterations =  1.6

     total cpu time spent up to now is      208.7 secs

     total energy              =    -942.09209715 Ry
     Harris-Foulkes estimate   =    -942.09209714 Ry
     estimated scf accuracy    <       0.00000002 Ry

     total magnetization       =     0.00 Bohr mag/cell
     absolute magnetization    =    12.64 Bohr mag/cell

     iteration #  8     ecut=    30.00 Ry     beta=0.30
     Davidson diagonalization with overlap
     ethr =  1.28E-11,  avg # of iterations =  2.0

     total cpu time spent up to now is      235.5 secs

     End of self-consistent calculation
 --- enter write_ns ---
 LDA+U parameters:
U( 1)     =  0.00000000
alpha( 1) = -0.15000000
U( 2)     =  0.00000000
alpha( 2) =  0.00000000
U( 3)     =  0.00000000
alpha( 3) =  0.00000000
U( 4)     =  0.00000000
alpha( 4) =  0.00000000
atom    1   Tr[ns(na)] (up, down, total) =   4.96231  3.74396  8.70627
   spin  1
    eigenvalues: 
  0.985  0.985  0.998  0.998  0.998
    eigenvectors:
  0.500  0.500  0.000  0.000  0.000
  0.000  0.000  0.333  0.082  0.585
  0.000  0.000  0.333  0.270  0.397
  0.500  0.500  0.000  0.000  0.000
  0.000  0.000  0.333  0.648  0.018
    occupations:
  0.985  0.000  0.000  0.000  0.000
  0.000  0.998  0.000  0.000  0.000
  0.000  0.000  0.998  0.000  0.000
  0.000  0.000  0.000  0.985  0.000
  0.000  0.000  0.000  0.000  0.998
   spin  2
    eigenvalues: 
  0.378  0.378  0.996  0.996  0.996
    eigenvectors:
  0.984  0.016  0.000  0.000  0.000
  0.000  0.000  0.175  0.492  0.333
  0.000  0.000  0.159  0.508  0.333
  0.016  0.984  0.000  0.000  0.000
  0.000  0.000  0.667  0.000  0.333
    occupations:
  0.378  0.000  0.000  0.000  0.001
  0.000  0.996  0.000  0.001  0.000
  0.000  0.000  0.996 -0.001  0.000
  0.000  0.001 -0.001  0.378  0.000
  0.001  0.000  0.000  0.000  0.996
atomic mag. moment =     1.218348
atom    2   Tr[ns(na)] (up, down, total) =   4.96211  3.72817  8.69028
   spin  1
    eigenvalues: 
  0.985  0.985  0.997  0.997  0.997
    eigenvectors:
  0.250  0.750  0.000  0.000  0.000
  0.000  0.000  0.002  0.500  0.498
  0.000  0.000  0.996  0.000  0.004
  0.750  0.250  0.000  0.000  0.000
  0.000  0.000  0.002  0.500  0.498
    occupations:
  0.985  0.000  0.000  0.000  0.000
  0.000  0.997  0.000  0.000  0.000
  0.000  0.000  0.997  0.000  0.000
  0.000  0.000  0.000  0.985  0.000
  0.000  0.000  0.000  0.000  0.997
   spin  2
    eigenvalues: 
  0.370  0.370  0.996  0.996  0.996
    eigenvectors:
  0.250  0.750  0.000  0.000  0.000
  0.000  0.000  0.025  0.500  0.475
  0.000  0.000  0.950  0.000  0.050
  0.750  0.250  0.000  0.000  0.000
  0.000  0.000  0.025  0.500  0.475
    occupations:
  0.370  0.000  0.000  0.000  0.001
  0.000  0.996  0.000  0.001  0.000
  0.000  0.000  0.996 -0.001  0.000
  0.000  0.001 -0.001  0.370  0.000
  0.001  0.000  0.000  0.000  0.996
atomic mag. moment =     1.233946
atom    3   Tr[ns(na)] (up, down, total) =   4.96211  3.72817  8.69028
   spin  1
    eigenvalues: 
  0.985  0.985  0.997  0.997  0.997
    eigenvectors:
  0.250  0.750  0.000  0.000  0.000
  0.000  0.000  0.996  0.000  0.004
  0.000  0.000  0.002  0.500  0.498
  0.750  0.250  0.000  0.000  0.000
  0.000  0.000  0.002  0.500  0.498
    occupations:
  0.985  0.000  0.000  0.000  0.000
  0.000  0.997  0.000  0.000  0.000
  0.000  0.000  0.997  0.000  0.000
  0.000  0.000  0.000  0.985  0.000
  0.000  0.000  0.000  0.000  0.997
   spin  2
    eigenvalues: 
  0.370  0.370  0.996  0.996  0.996
    eigenvectors:
  0.250  0.750  0.000  0.000  0.000
  0.000  0.000  0.950  0.000  0.050
  0.000  0.000  0.025  0.500  0.475
  0.750  0.250  0.000  0.000  0.000
  0.000  0.000  0.025  0.500  0.475
    occupations:
  0.370  0.000  0.000  0.000  0.001
  0.000  0.996  0.000  0.001  0.000
  0.000  0.000  0.996 -0.001  0.000
  0.000  0.001 -0.001  0.370  0.000
  0.001  0.000  0.000  0.000  0.996
atomic mag. moment =     1.233946
atom    4   Tr[ns(na)] (up, down, total) =   4.96211  3.72817  8.69028
   spin  1
    eigenvalues: 
  0.985  0.985  0.997  0.997  0.997
    eigenvectors:
  1.000  0.000  0.000  0.000  0.000
  0.000  0.000  0.002  0.500  0.498
  0.000  0.000  0.002  0.500  0.498
  0.000  1.000  0.000  0.000  0.000
  0.000  0.000  0.996  0.000  0.004
    occupations:
  0.985  0.000  0.000  0.000  0.000
  0.000  0.997  0.000  0.000  0.000
  0.000  0.000  0.997  0.000  0.000
  0.000  0.000  0.000  0.985  0.000
  0.000  0.000  0.000  0.000  0.997
   spin  2
    eigenvalues: 
  0.370  0.370  0.996  0.996  0.996
    eigenvectors:
  1.000  0.000  0.000  0.000  0.000
  0.000  0.000  0.025  0.500  0.475
  0.000  0.000  0.025  0.500  0.475
  0.000  1.000  0.000  0.000  0.000
  0.000  0.000  0.950  0.000  0.050
    occupations:
  0.370  0.000  0.000  0.000  0.001
  0.000  0.996  0.000  0.001  0.000
  0.000  0.000  0.996 -0.001  0.000
  0.000  0.001 -0.001  0.370  0.000
  0.001  0.000  0.000  0.000  0.996
atomic mag. moment =     1.233946
atom    5   Tr[ns(na)] (up, down, total) =   3.72822  4.96208  8.69030
   spin  1
    eigenvalues: 
  0.370  0.370  0.996  0.996  0.996
    eigenvectors:
  0.000  1.000  0.000  0.000  0.000
  0.000  0.000  0.143  0.500  0.357
  0.000  0.000  0.143  0.500  0.357
  1.000  0.000  0.000  0.000  0.000
  0.000  0.000  0.714  0.000  0.286
    occupations:
  0.370  0.000  0.000  0.000  0.001
  0.000  0.996  0.000  0.001  0.000
  0.000  0.000  0.996 -0.001  0.000
  0.000  0.001 -0.001  0.370  0.000
  0.001  0.000  0.000  0.000  0.996
   spin  2
    eigenvalues: 
  0.985  0.985  0.997  0.997  0.997
    eigenvectors:
  1.000  0.000  0.000  0.000  0.000
  0.000  0.000  0.003  0.497  0.500
  0.000  0.000  0.003  0.497  0.500
  0.000  1.000  0.000  0.000  0.000
  0.000  0.000  0.994  0.006  0.000
    occupations:
  0.985  0.000  0.000  0.000  0.000
  0.000  0.997  0.000  0.000  0.000
  0.000  0.000  0.997  0.000  0.000
  0.000  0.000  0.000  0.985  0.000
  0.000  0.000  0.000  0.000  0.997
atomic mag. moment =    -1.233866
atom    6   Tr[ns(na)] (up, down, total) =   3.72822  4.96208  8.69030
   spin  1
    eigenvalues: 
  0.370  0.370  0.996  0.996  0.996
    eigenvectors:
  0.750  0.250  0.000  0.000  0.000
  0.000  0.000  0.714  0.000  0.286
  0.000  0.000  0.143  0.500  0.357
  0.250  0.750  0.000  0.000  0.000
  0.000  0.000  0.143  0.500  0.357
    occupations:
  0.370  0.000  0.000  0.000  0.001
  0.000  0.996  0.000  0.001  0.000
  0.000  0.000  0.996 -0.001  0.000
  0.000  0.001 -0.001  0.370  0.000
  0.001  0.000  0.000  0.000  0.996
   spin  2
    eigenvalues: 
  0.985  0.985  0.997  0.997  0.997
    eigenvectors:
  0.250  0.750  0.000  0.000  0.000
  0.000  0.000  0.994  0.006  0.000
  0.000  0.000  0.003  0.497  0.500
  0.750  0.250  0.000  0.000  0.000
  0.000  0.000  0.003  0.497  0.500
    occupations:
  0.985  0.000  0.000  0.000  0.000
  0.000  0.997  0.000  0.000  0.000
  0.000  0.000  0.997  0.000  0.000
  0.000  0.000  0.000  0.985  0.000
  0.000  0.000  0.000  0.000  0.997
atomic mag. moment =    -1.233866
atom    7   Tr[ns(na)] (up, down, total) =   3.72822  4.96208  8.69030
   spin  1
    eigenvalues: 
  0.370  0.370  0.996  0.996  0.996
    eigenvectors:
  0.750  0.250  0.000  0.000  0.000
  0.000  0.000  0.143  0.500  0.357
  0.000  0.000  0.714  0.000  0.286
  0.250  0.750  0.000  0.000  0.000
  0.000  0.000  0.143  0.500  0.357
    occupations:
  0.370  0.000  0.000  0.000  0.001
  0.000  0.996  0.000  0.001  0.000
  0.000  0.000  0.996 -0.001  0.000
  0.000  0.001 -0.001  0.370  0.000
  0.001  0.000  0.000  0.000  0.996
   spin  2
    eigenvalues: 
  0.985  0.985  0.997  0.997  0.997
    eigenvectors:
  0.250  0.750  0.000  0.000  0.000
  0.000  0.000  0.003  0.497  0.500
  0.000  0.000  0.994  0.006  0.000
  0.750  0.250  0.000  0.000  0.000
  0.000  0.000  0.003  0.497  0.500
    occupations:
  0.985  0.000  0.000  0.000  0.000
  0.000  0.997  0.000  0.000  0.000
  0.000  0.000  0.997  0.000  0.000
  0.000  0.000  0.000  0.985  0.000
  0.000  0.000  0.000  0.000  0.997
atomic mag. moment =    -1.233866
atom    8   Tr[ns(na)] (up, down, total) =   3.73011  4.96114  8.69125
   spin  1
    eigenvalues: 
  0.371  0.371  0.996  0.996  0.996
    eigenvectors:
  0.887  0.113  0.000  0.000  0.000
  0.000  0.000  0.171  0.495  0.333
  0.000  0.000  0.162  0.505  0.333
  0.113  0.887  0.000  0.000  0.000
  0.000  0.000  0.667  0.000  0.333
    occupations:
  0.371  0.000  0.000  0.000  0.001
  0.000  0.996  0.000  0.001  0.000
  0.000  0.000  0.996 -0.001  0.000
  0.000  0.001 -0.001  0.371  0.000
  0.001  0.000  0.000  0.000  0.996
   spin  2
    eigenvalues: 
  0.984  0.984  0.997  0.997  0.997
    eigenvectors:
  0.464  0.536  0.000  0.000  0.000
  0.000  0.000  0.075  0.592  0.333
  0.000  0.000  0.281  0.386  0.333
  0.536  0.464  0.000  0.000  0.000
  0.000  0.000  0.645  0.022  0.333
    occupations:
  0.984  0.000  0.000  0.000  0.000
  0.000  0.997  0.000  0.000  0.000
  0.000  0.000  0.997  0.000  0.000
  0.000  0.000  0.000  0.984  0.000
  0.000  0.000  0.000  0.000  0.997
atomic mag. moment =    -1.231035
atom    9   Tr[ns(na)] (up, down, total) =   2.81414  2.81290  5.62704
   spin  1
    eigenvalues: 
  0.938  0.938  0.938
    eigenvectors:
  0.855  0.000  0.145
  0.072  0.500  0.428
  0.072  0.500  0.428
    occupations:
  0.938  0.000  0.000
  0.000  0.938  0.000
  0.000  0.000  0.938
   spin  2
    eigenvalues: 
  0.937  0.938  0.938
    eigenvectors:
  1.000  0.000  0.000
  0.000  0.500  0.500
  0.000  0.500  0.500
    occupations:
  0.937  0.000  0.000
  0.000  0.938  0.000
  0.000  0.000  0.938
atomic mag. moment =     0.001244
atom   10   Tr[ns(na)] (up, down, total) =   2.81404  2.81402  5.62806
   spin  1
    eigenvalues: 
  0.938  0.938  0.938
    eigenvectors:
  0.445  0.222  0.333
  0.549  0.117  0.333
  0.006  0.661  0.333
    occupations:
  0.938  0.000  0.000
  0.000  0.938  0.000
  0.000  0.000  0.938
   spin  2
    eigenvalues: 
  0.938  0.938  0.938
    eigenvectors:
  0.479  0.188  0.333
  0.521  0.146  0.333
  0.001  0.666  0.333
    occupations:
  0.938  0.000  0.000
  0.000  0.938  0.000
  0.000  0.000  0.938
atomic mag. moment =     0.000019
atom   11   Tr[ns(na)] (up, down, total) =   2.81414  2.81290  5.62704
   spin  1
    eigenvalues: 
  0.938  0.938  0.938
    eigenvectors:
  0.072  0.500  0.428
  0.072  0.500  0.428
  0.855  0.000  0.145
    occupations:
  0.938  0.000  0.000
  0.000  0.938  0.000
  0.000  0.000  0.938
   spin  2
    eigenvalues: 
  0.937  0.938  0.938
    eigenvectors:
  0.000  0.500  0.500
  0.000  0.500  0.500
  1.000  0.000  0.000
    occupations:
  0.938  0.000  0.000
  0.000  0.938  0.000
  0.000  0.000  0.937
atomic mag. moment =     0.001244
atom   12   Tr[ns(na)] (up, down, total) =   2.81414  2.81290  5.62704
   spin  1
    eigenvalues: 
  0.938  0.938  0.938
    eigenvectors:
  0.072  0.500  0.428
  0.855  0.000  0.145
  0.072  0.500  0.428
    occupations:
  0.938  0.000  0.000
  0.000  0.938  0.000
  0.000  0.000  0.938
   spin  2
    eigenvalues: 
  0.937  0.938  0.938
    eigenvectors:
  0.000  0.500  0.500
  1.000  0.000  0.000
  0.000  0.500  0.500
    occupations:
  0.938  0.000  0.000
  0.000  0.937  0.000
  0.000  0.000  0.938
atomic mag. moment =     0.001244
atom   13   Tr[ns(na)] (up, down, total) =   2.81414  2.81290  5.62704
   spin  1
    eigenvalues: 
  0.938  0.938  0.938
    eigenvectors:
  0.072  0.500  0.428
  0.072  0.500  0.428
  0.855  0.000  0.145
    occupations:
  0.938  0.000  0.000
  0.000  0.938  0.000
  0.000  0.000  0.938
   spin  2
    eigenvalues: 
  0.937  0.938  0.938
    eigenvectors:
  0.000  0.500  0.500
  0.000  0.500  0.500
  1.000  0.000  0.000
    occupations:
  0.938  0.000  0.000
  0.000  0.938  0.000
  0.000  0.000  0.937
atomic mag. moment =     0.001244
atom   14   Tr[ns(na)] (up, down, total) =   2.81414  2.81290  5.62704
   spin  1
    eigenvalues: 
  0.938  0.938  0.938
    eigenvectors:
  0.072  0.500  0.428
  0.855  0.000  0.145
  0.072  0.500  0.428
    occupations:
  0.938  0.000  0.000
  0.000  0.938  0.000
  0.000  0.000  0.938
   spin  2
    eigenvalues: 
  0.937  0.938  0.938
    eigenvectors:
  0.000  0.500  0.500
  1.000  0.000  0.000
  0.000  0.500  0.500
    occupations:
  0.938  0.000  0.000
  0.000  0.937  0.000
  0.000  0.000  0.938
atomic mag. moment =     0.001244
atom   15   Tr[ns(na)] (up, down, total) =   2.81404  2.81402  5.62806
   spin  1
    eigenvalues: 
  0.938  0.938  0.938
    eigenvectors:
  0.449  0.218  0.333
  0.547  0.120  0.333
  0.005  0.662  0.333
    occupations:
  0.938  0.000  0.000
  0.000  0.938  0.000
  0.000  0.000  0.938
   spin  2
    eigenvalues: 
  0.938  0.938  0.938
    eigenvectors:
  0.459  0.208  0.333
  0.538  0.129  0.333
  0.003  0.664  0.333
    occupations:
  0.938  0.000  0.000
  0.000  0.938  0.000
  0.000  0.000  0.938
atomic mag. moment =     0.000019
atom   16   Tr[ns(na)] (up, down, total) =   2.81414  2.81290  5.62704
   spin  1
    eigenvalues: 
  0.938  0.938  0.938
    eigenvectors:
  0.855  0.000  0.145
  0.072  0.500  0.428
  0.072  0.500  0.428
    occupations:
  0.938  0.000  0.000
  0.000  0.938  0.000
  0.000  0.000  0.938
   spin  2
    eigenvalues: 
  0.937  0.938  0.938
    eigenvectors:
  1.000  0.000  0.000
  0.000  0.500  0.500
  0.000  0.500  0.500
    occupations:
  0.937  0.000  0.000
  0.000  0.938  0.000
  0.000  0.000  0.938
atomic mag. moment =     0.001244
N of occupied +U levels = 114.5576243
 --- exit write_ns ---

 ------ SPIN UP ------------


          k = 0.0000 0.0000 0.0000 (  2733 PWs)   bands (ev):

    -8.0454  -6.6491  -6.6490  -6.6490  -6.6474  -6.5899  -6.5899  -6.5797
     4.0314   4.0314   4.0329   4.0460   5.3513   5.3513   5.3516   6.4956
     6.4956   6.5174   6.5174   6.5248   6.5492   6.5492   6.5537   7.9872
     7.9878   7.9878   7.9887   7.9887   7.9894   8.7740   8.7758   8.7758
     9.2959   9.2959   9.2979   9.4944   9.4944   9.6373   9.8347   9.8347
     9.8794   9.8794   9.8860  10.1615  10.1699  10.1699  10.4363  10.4363
    10.4436  10.5473  10.5486  10.5486  10.8818  10.8818  11.0068  11.0068
    11.0087  11.1492  11.2341  11.2341  11.2356  11.3553  11.3557  11.3557
    13.5550  13.5550  13.6152  13.6152  13.6157  13.7004  13.7004  13.7017
    13.7704  17.8016  17.8042  17.8052  17.8052

          k = 0.2500-0.2500-0.2500 (  2764 PWs)   bands (ev):

    -7.4106  -7.4100  -6.6356  -6.6302  -6.6259  -6.6218  -6.6178  -6.6177
     5.0546   5.0655   5.0695   5.0783   5.0861   5.0883   6.1024   6.1090
     6.3081   6.3241   6.3739   6.3904   6.4567   6.4677   6.8237   6.8405
     7.0088   7.0188   7.3273   7.3312   7.4850   7.4904   7.6518   7.6557
     9.5579   9.5820   9.7528   9.7736   9.8280   9.8451   9.9596   9.9742
    10.0994  10.1142  10.1518  10.1645  10.4787  10.4841  10.6029  10.6030
    10.6333  10.6343  10.8282  10.8311  10.9292  10.9311  11.2128  11.2131
    11.2253  11.2271  11.2698  11.2708  11.3001  11.3020  11.4119  11.4131
    13.0506  13.0538  13.0553  13.0579  13.0635  13.0655  13.0757  13.0779
    16.4975  16.5003  19.6597  19.6664  19.7234

          k = 0.0000 0.0000-0.5000 (  2762 PWs)   bands (ev):

    -7.2766  -7.2727  -6.7826  -6.7771  -6.7770  -6.7760  -6.4812  -6.4719
     5.0148   5.0265   5.0280   5.0373   5.7766   5.7806   6.1090   6.1137
     6.1185   6.1219   6.4034   6.4108   6.6196   6.6418   6.6660   6.6758
     6.7236   6.7321   6.7359   6.7427   8.1623   8.1684   8.1736   8.1781
     9.1772   9.2041   9.8807   9.8897   9.9636   9.9713   9.9741   9.9945
    10.0065  10.0101  10.1053  10.1225  10.2970  10.3108  10.4322  10.4433
    10.4710  10.4755  10.5353  10.5469  10.8830  10.8850  10.9677  10.9713
    11.1217  11.1238  11.2049  11.2071  11.3044  11.3066  11.3197  11.3213
    12.4680  12.4696  12.7258  12.7270  13.5262  13.5272  13.6275  13.6291
    17.6831  17.6874  19.2662  19.2685  19.2693

          k =-0.2500-0.2500-0.2500 (  2764 PWs)   bands (ev):

    -7.4145  -7.4062  -6.6418  -6.6418  -6.6315  -6.6115  -6.6115  -6.6104
     5.0145   5.0145   5.0240   5.1302   5.1302   5.1313   6.0842   6.1310
     6.2417   6.2417   6.2529   6.7092   6.7096   6.7096   6.7230   6.7230
     6.7366   6.9467   6.9467   7.4737   7.4738   7.4738   7.8884   7.8884
     9.4154   9.4256   9.4256   9.6054   9.6054  10.0494  10.0494  10.0604
    10.0672  10.4253  10.4258  10.4258  10.4514  10.4514  10.4514  10.6988
    10.6988  10.7938  10.7938  10.7946  10.8473  11.0249  11.0249  11.0251
    11.2143  11.2143  11.2157  11.2831  11.2831  11.3734  11.3746  11.3746
    13.0512  13.0512  13.0533  13.0718  13.0718  13.0819  13.0819  13.0835
    16.4231  16.5774  19.6357  19.6357  19.6505

 ------ SPIN DOWN ----------


          k = 0.0000 0.0000 0.0000 (  2733 PWs)   bands (ev):

    -8.0435  -6.6473  -6.6462  -6.6461  -6.6461  -6.5865  -6.5865  -6.5790
     4.0328   4.0328   4.0341   4.0484   5.3528   5.3528   5.3528   6.5087
     6.5087   6.5198   6.5198   6.5255   6.5524   6.5524   6.5548   7.9885
     7.9893   7.9893   7.9911   7.9911   7.9918   8.7809   8.7809   8.7820
     9.2981   9.2981   9.3004   9.5030   9.5030   9.6430   9.8295   9.8295
     9.8813   9.8813   9.8861  10.1668  10.1693  10.1693  10.4387  10.4387
    10.4438  10.5483  10.5498  10.5498  10.8703  10.8703  11.0006  11.0006
    11.0007  11.1412  11.2191  11.2191  11.2357  11.3433  11.3496  11.3496
    13.5481  13.5481  13.6072  13.6072  13.6162  13.6921  13.6921  13.7017
    13.7708  17.8017  17.8046  17.8056  17.8056

          k = 0.2500-0.2500-0.2500 (  2764 PWs)   bands (ev):

    -7.4086  -7.4080  -6.6299  -6.6236  -6.6235  -6.6225  -6.6197  -6.6155
     5.0615   5.0656   5.0753   5.0795   5.0802   5.0911   6.1047   6.1106
     6.3205   6.3263   6.3863   6.3918   6.4613   6.4691   6.8391   6.8418
     7.0124   7.0198   7.3195   7.3321   7.4798   7.4921   7.6446   7.6572
     9.5805   9.5821   9.7673   9.7737   9.8346   9.8458   9.9696   9.9743
    10.1101  10.1144  10.1641  10.1644  10.4799  10.4850  10.5917  10.6045
    10.6067  10.6349  10.8266  10.8324  10.9248  10.9325  11.1978  11.2113
    11.2148  11.2274  11.2598  11.2717  11.2823  11.3021  11.4037  11.4139
    13.0182  13.0254  13.0539  13.0582  13.0596  13.0656  13.0701  13.0783
    16.4983  16.5009  19.6581  19.6594  19.7229

          k = 0.0000 0.0000-0.5000 (  2762 PWs)   bands (ev):

    -7.2737  -7.2714  -6.7795  -6.7760  -6.7743  -6.7742  -6.4777  -6.4704
     5.0195   5.0270   5.0364   5.0378   5.7758   5.7816   6.1126   6.1153
     6.1206   6.1242   6.4056   6.4117   6.6342   6.6423   6.6703   6.6763
     6.7273   6.7325   6.7371   6.7449   8.1653   8.1709   8.1741   8.1809
     9.1905   9.2042   9.8870   9.8901   9.9686   9.9717   9.9937   9.9952
     9.9967  10.0104  10.1183  10.1231  10.3080  10.3117  10.4431  10.4437
    10.4643  10.4759  10.5470  10.5482  10.8574  10.8852  10.9528  10.9713
    11.0987  11.1243  11.1913  11.2077  11.2879  11.3025  11.3064  11.3220
    12.4388  12.4696  12.7075  12.7270  13.5129  13.5275  13.6163  13.6293
    17.6839  17.6889  19.2668  19.2691  19.2716

          k =-0.2500-0.2500-0.2500 (  2764 PWs)   bands (ev):

    -7.4132  -7.4036  -6.6309  -6.6298  -6.6298  -6.6172  -6.6172  -6.6095
     5.0251   5.0251   5.0276   5.1216   5.1216   5.1324   6.0925   6.1270
     6.2565   6.2579   6.2579   6.6995   6.6995   6.7056   6.7377   6.7384
     6.7384   6.9573   6.9573   7.4632   7.4632   7.4744   7.8807   7.8807
     9.4367   9.4371   9.4371   9.6169   9.6169  10.0602  10.0602  10.0605
    10.0766  10.4033  10.4112  10.4112  10.4580  10.4580  10.4580  10.6853
    10.6853  10.7971  10.7981  10.7981  10.8356  11.0262  11.0270  11.0270
    11.1991  11.1991  11.2158  11.2845  11.2845  11.3604  11.3686  11.3686
    13.0257  13.0257  13.0532  13.0652  13.0652  13.0779  13.0779  13.0837
    16.4215  16.5809  19.6372  19.6390  19.6390

     the Fermi energy is    11.9339 ev

!    total energy              =    -942.09209717 Ry
     Harris-Foulkes estimate   =    -942.09209716 Ry
     estimated scf accuracy    <          2.2E-09 Ry

     The total energy is the sum of the following terms:

     one-electron contribution =     -56.25939784 Ry
     hartree contribution      =     175.71017738 Ry
     xc contribution           =    -297.58948602 Ry
     ewald contribution        =    -763.85740583 Ry
     Hubbard energy            =      -0.09598486 Ry
     smearing contrib. (-TS)   =       0.00000000 Ry

     total magnetization       =     0.00 Bohr mag/cell
     absolute magnetization    =    12.64 Bohr mag/cell

     convergence has been achieved in   8 iterations

     Writing output data file nio.save
 
     init_run     :     13.82s CPU     15.12s WALL (       1 calls)
     electrons    :    207.69s CPU    220.16s WALL (       1 calls)

     Called by init_run:
     wfcinit      :      0.19s CPU      0.22s WALL (       1 calls)
     potinit      :      1.14s CPU      1.35s WALL (       1 calls)

     Called by electrons:
     c_bands      :     35.64s CPU     37.77s WALL (       8 calls)
     sum_band     :     85.85s CPU     87.22s WALL (       8 calls)
     v_of_rho     :      8.09s CPU      9.07s WALL (       9 calls)
     newd         :     85.04s CPU     93.70s WALL (       9 calls)
     mix_rho      :      1.53s CPU      1.65s WALL (       8 calls)

     Called by c_bands:
     init_us_2    :      0.40s CPU      0.40s WALL (      34 calls)
     cegterg      :     34.67s CPU     36.58s WALL (      16 calls)

     Called by *egterg:
     h_psi        :     25.31s CPU     26.39s WALL (      75 calls)
     s_psi        :      2.10s CPU      2.08s WALL (      77 calls)
     g_psi        :      0.11s CPU      0.12s WALL (      59 calls)
     cdiaghg      :      1.93s CPU      1.93s WALL (      73 calls)

     Called by h_psi:
     add_vuspsi   :      2.00s CPU      2.01s WALL (      75 calls)

     General routines
     calbec       :      3.56s CPU      3.53s WALL (     184 calls)
     fft          :      7.40s CPU      8.29s WALL (     267 calls)
     ffts         :      0.09s CPU      0.11s WALL (      34 calls)
     fftw         :     13.85s CPU     15.21s WALL (    7502 calls)
     interpolate  :      1.31s CPU      1.67s WALL (      34 calls)
     davcio       :      0.00s CPU      0.51s WALL (     100 calls)
 
     Parallel routines
     fft_scatter  :      4.17s CPU      4.88s WALL (    7803 calls)
     EXX routines
 
     PWSCF        :  3m41.86s CPU     3m55.79s WALL

 
   This run was terminated on:  11:56:38  17Jun2012            

=------------------------------------------------------------------------------=
   JOB DONE.
=------------------------------------------------------------------------------=
