
     Program PWSCF v.5.0        starts on 17Jun2012 at 11:56:39 

     This program is part of the open-source Quantum ESPRESSO suite
     for quantum simulation of materials; please cite
         "P. Giannozzi et al., J. Phys.:Condens. Matter 21 395502 (2009);
          URL http://www.quantum-espresso.org", 
     in publications or presentations arising from this work. More details at
     http://www.quantum-espresso.org/quote.php

     Parallel version (MPI), running on     4 processors
     K-points division:     npool     =    4

     Current dimensions of program PWSCF are:
     Max number of different atomic species (ntypx) = 10
     Max number of k-points (npk) =  40000
     Max angular momentum in pseudopotentials (lmaxx) =  3
     Waiting for input...
     Reading input from standard input
               file Ni.pbe-nd-rrkjus.UPF: wavefunction(s)  4S renormalized
               file Ni.pbe-nd-rrkjus.UPF: wavefunction(s)  4S renormalized
               file Ni.pbe-nd-rrkjus.UPF: wavefunction(s)  4S renormalized
               file O.pbe-rrkjus.UPF: wavefunction(s)  2S renormalized

     Subspace diagonalization in iterative solution of the eigenvalue problem:
     a serial algorithm will be used

 
     G-vector sticks info
     --------------------
     sticks:   dense  smooth     PW     G-vecs:    dense   smooth      PW
     Sum        2587    1039    295                86547    22075    3287
 


     bravais-lattice index     =            0
     lattice parameter (alat)  =       7.9000  a.u.
     unit-cell volume          =     986.0780 (a.u.)^3
     number of atoms/cell      =           16
     number of atomic types    =            4
     number of electrons       =       128.00
     number of Kohn-Sham states=           77
     kinetic-energy cutoff     =      30.0000  Ry
     charge density cutoff     =     300.0000  Ry
     convergence threshold     =      1.0E-08
     mixing beta               =       0.3000
     number of iterations used =            8  plain     mixing
     Exchange-correlation      =  SLA  PW   PBE  PBE ( 1 4 3 4 0)
     EXX-fraction              =        0.00

     celldm(1)=   7.900000  celldm(2)=   0.000000  celldm(3)=   0.000000
     celldm(4)=   0.000000  celldm(5)=   0.000000  celldm(6)=   0.000000

     crystal axes: (cart. coord. in units of alat)
               a(1) = (   1.000000   1.000000   0.000000 )  
               a(2) = (   1.000000   0.000000   1.000000 )  
               a(3) = (   0.000000   1.000000   1.000000 )  

     reciprocal axes: (cart. coord. in units 2 pi/alat)
               b(1) = (  0.500000  0.500000 -0.500000 )  
               b(2) = (  0.500000 -0.500000  0.500000 )  
               b(3) = ( -0.500000  0.500000  0.500000 )  


     PseudoPot. # 1 for Ni read from file:
     ../pseudo/Ni.pbe-nd-rrkjus.UPF
     MD5 check sum: 8081f0a005c9a5470caab1a58e82ecb2
     Pseudo is Ultrasoft + core correction, Zval = 10.0
     Generated by new atomic code, or converted to UPF format
     Using radial grid of 1203 points,  6 beta functions with: 
                l(1) =   0
                l(2) =   0
                l(3) =   1
                l(4) =   1
                l(5) =   2
                l(6) =   2
     Q(r) pseudized with 0 coefficients 


     PseudoPot. # 2 for Ni read from file:
     ../pseudo/Ni.pbe-nd-rrkjus.UPF
     MD5 check sum: 8081f0a005c9a5470caab1a58e82ecb2
     Pseudo is Ultrasoft + core correction, Zval = 10.0
     Generated by new atomic code, or converted to UPF format
     Using radial grid of 1203 points,  6 beta functions with: 
                l(1) =   0
                l(2) =   0
                l(3) =   1
                l(4) =   1
                l(5) =   2
                l(6) =   2
     Q(r) pseudized with 0 coefficients 


     PseudoPot. # 3 for Ni read from file:
     ../pseudo/Ni.pbe-nd-rrkjus.UPF
     MD5 check sum: 8081f0a005c9a5470caab1a58e82ecb2
     Pseudo is Ultrasoft + core correction, Zval = 10.0
     Generated by new atomic code, or converted to UPF format
     Using radial grid of 1203 points,  6 beta functions with: 
                l(1) =   0
                l(2) =   0
                l(3) =   1
                l(4) =   1
                l(5) =   2
                l(6) =   2
     Q(r) pseudized with 0 coefficients 


     PseudoPot. # 4 for O  read from file:
     ../pseudo/O.pbe-rrkjus.UPF
     MD5 check sum: 390ba29e75625707450f3bd3f0eb6be9
     Pseudo is Ultrasoft, Zval =  6.0
     Generated by new atomic code, or converted to UPF format
     Using radial grid of 1269 points,  4 beta functions with: 
                l(1) =   0
                l(2) =   0
                l(3) =   1
                l(4) =   1
     Q(r) pseudized with 0 coefficients 


     atomic species   valence    mass     pseudopotential
        Ni1           10.00     1.00000     Ni( 1.00)
        Ni2           10.00     1.00000     Ni( 1.00)
        Ni3           10.00     1.00000     Ni( 1.00)
        O1             6.00     1.00000     O ( 1.00)

     Starting magnetic structure 
     atomic species   magnetization
        Ni1          0.500
        Ni2          0.500
        Ni3         -0.500
        O1           0.000
 -----
     simplified LDA+U calculation, Hubbard_lmax = 2
     atomic species  L   Hubbard U  Hubbard alpha
        Ni1          2    0.000000    0.150000
        Ni2          2    0.000000    0.000000
        Ni3          2    0.000000    0.000000
        O1           1    0.000000    0.000000
 -----

     12 Sym. Ops., with inversion, found



   Cartesian axes

     site n.     atom                  positions (alat units)
         1           Ni1 tau(   1) = (   0.0000000   0.0000000   0.0000000  )
         2           Ni2 tau(   2) = (   1.0000000   0.5000000   0.5000000  )
         3           Ni2 tau(   3) = (   0.5000000   1.0000000   0.5000000  )
         4           Ni2 tau(   4) = (   0.5000000   0.5000000   1.0000000  )
         5           Ni3 tau(   5) = (   0.5000000   0.5000000   0.0000000  )
         6           Ni3 tau(   6) = (   0.5000000   0.0000000   0.5000000  )
         7           Ni3 tau(   7) = (   0.0000000   0.5000000   0.5000000  )
         8           Ni3 tau(   8) = (   1.0000000   1.0000000   1.0000000  )
         9           O1  tau(   9) = (   0.0000000   0.0000000   0.5000000  )
        10           O1  tau(  10) = (   0.5000000   0.5000000   0.5000000  )
        11           O1  tau(  11) = (   0.0000000   0.5000000   1.0000000  )
        12           O1  tau(  12) = (   0.5000000   0.0000000   1.0000000  )
        13           O1  tau(  13) = (   1.0000000   0.5000000   1.0000000  )
        14           O1  tau(  14) = (   0.5000000   1.0000000   1.0000000  )
        15           O1  tau(  15) = (   0.5000000   0.5000000   1.5000000  )
        16           O1  tau(  16) = (   1.0000000   1.0000000   1.5000000  )

     number of k points=     8  gaussian smearing, width (Ry)=  0.0100
                       cart. coord. in units 2pi/alat
        k(    1) = (   0.0000000   0.0000000   0.0000000), wk =   0.1250000
        k(    2) = (   0.2500000  -0.2500000  -0.2500000), wk =   0.3750000
        k(    3) = (   0.0000000   0.0000000  -0.5000000), wk =   0.3750000
        k(    4) = (  -0.2500000  -0.2500000  -0.2500000), wk =   0.1250000
        k(    5) = (   0.0000000   0.0000000   0.0000000), wk =   0.1250000
        k(    6) = (   0.2500000  -0.2500000  -0.2500000), wk =   0.3750000
        k(    7) = (   0.0000000   0.0000000  -0.5000000), wk =   0.3750000
        k(    8) = (  -0.2500000  -0.2500000  -0.2500000), wk =   0.1250000

     Dense  grid:    86547 G-vectors     FFT dimensions: (  64,  64,  64)

     Smooth grid:    22075 G-vectors     FFT dimensions: (  40,  40,  40)

     Largest allocated arrays     est. size (Mb)     dimensions
        Kohn-Sham Wavefunctions         3.25 Mb     (   2764,   77)
        Atomic wavefunctions            3.37 Mb     (   2764,   80)
        NL pseudopotentials             8.77 Mb     (   2764,  208)
        Each V/rho on FFT grid          8.00 Mb     ( 262144,   2)
        Each G-vector array             0.66 Mb     (  86547)
        G-vector shells                 0.00 Mb     (    635)
     Largest temporary arrays     est. size (Mb)     dimensions
        Auxiliary wavefunctions        12.99 Mb     (   2764,  308)
        Each subspace H/S matrix        1.45 Mb     ( 308, 308)
        Each <psi_i|beta_j> matrix      0.24 Mb     (    208,   77)
        Arrays for rho mixing          32.00 Mb     ( 262144,   8)

     Check: negative/imaginary core charge=   -0.000047    0.000000

     The initial density is read from file :
     ./temp/nio.save/charge-density.dat

     Number of +U iterations with fixed ns =  0
     Starting occupations:
 --- enter write_ns ---
 LDA+U parameters:
U( 1)     =  0.00000000
alpha( 1) =  0.15000000
U( 2)     =  0.00000000
alpha( 2) =  0.00000000
U( 3)     =  0.00000000
alpha( 3) =  0.00000000
U( 4)     =  0.00000000
alpha( 4) =  0.00000000
atom    1   Tr[ns(na)] (up, down, total) =   4.96210  3.72839  8.69049
   spin  1
    eigenvalues: 
  0.985  0.985  0.997  0.997  0.997
    eigenvectors:
  0.500  0.500  0.000  0.000  0.000
  0.000  0.000  0.168  0.499  0.333
  0.000  0.000  0.166  0.501  0.333
  0.500  0.500  0.000  0.000  0.000
  0.000  0.000  0.667  0.000  0.333
    occupations:
  0.985  0.000  0.000  0.000  0.000
  0.000  0.997  0.000  0.000  0.000
  0.000  0.000  0.997  0.000  0.000
  0.000  0.000  0.000  0.985  0.000
  0.000  0.000  0.000  0.000  0.997
   spin  2
    eigenvalues: 
  0.370  0.370  0.996  0.996  0.996
    eigenvectors:
  0.003  0.997  0.000  0.000  0.000
  0.000  0.000  0.183  0.483  0.333
  0.000  0.000  0.150  0.516  0.333
  0.997  0.003  0.000  0.000  0.000
  0.000  0.000  0.666  0.001  0.333
    occupations:
  0.370  0.000  0.000  0.000  0.001
  0.000  0.996  0.000  0.001  0.000
  0.000  0.000  0.996 -0.001  0.000
  0.000  0.001 -0.001  0.370  0.000
  0.001  0.000  0.000  0.000  0.996
atomic mag. moment =     1.233715
atom    2   Tr[ns(na)] (up, down, total) =   4.96210  3.72838  8.69048
   spin  1
    eigenvalues: 
  0.985  0.985  0.997  0.997  0.997
    eigenvectors:
  0.750  0.250  0.000  0.000  0.000
  0.000  0.000  0.152  0.500  0.348
  0.000  0.000  0.696  0.000  0.304
  0.250  0.750  0.000  0.000  0.000
  0.000  0.000  0.152  0.500  0.348
    occupations:
  0.985  0.000  0.000  0.000  0.000
  0.000  0.997  0.000  0.000  0.000
  0.000  0.000  0.997  0.000  0.000
  0.000  0.000  0.000  0.985  0.000
  0.000  0.000  0.000  0.000  0.997
   spin  2
    eigenvalues: 
  0.370  0.370  0.996  0.996  0.996
    eigenvectors:
  0.250  0.750  0.000  0.000  0.000
  0.000  0.000  0.166  0.500  0.334
  0.000  0.000  0.667  0.000  0.333
  0.750  0.250  0.000  0.000  0.000
  0.000  0.000  0.166  0.500  0.334
    occupations:
  0.370  0.000  0.000  0.000  0.001
  0.000  0.996  0.000  0.001  0.000
  0.000  0.000  0.996 -0.001  0.000
  0.000  0.001 -0.001  0.370  0.000
  0.001  0.000  0.000  0.000  0.996
atomic mag. moment =     1.233723
atom    3   Tr[ns(na)] (up, down, total) =   4.96210  3.72838  8.69048
   spin  1
    eigenvalues: 
  0.985  0.985  0.997  0.997  0.997
    eigenvectors:
  0.750  0.250  0.000  0.000  0.000
  0.000  0.000  0.696  0.000  0.304
  0.000  0.000  0.152  0.500  0.348
  0.250  0.750  0.000  0.000  0.000
  0.000  0.000  0.152  0.500  0.348
    occupations:
  0.985  0.000  0.000  0.000  0.000
  0.000  0.997  0.000  0.000  0.000
  0.000  0.000  0.997  0.000  0.000
  0.000  0.000  0.000  0.985  0.000
  0.000  0.000  0.000  0.000  0.997
   spin  2
    eigenvalues: 
  0.370  0.370  0.996  0.996  0.996
    eigenvectors:
  0.250  0.750  0.000  0.000  0.000
  0.000  0.000  0.667  0.000  0.333
  0.000  0.000  0.166  0.500  0.334
  0.750  0.250  0.000  0.000  0.000
  0.000  0.000  0.166  0.500  0.334
    occupations:
  0.370  0.000  0.000  0.000  0.001
  0.000  0.996  0.000  0.001  0.000
  0.000  0.000  0.996 -0.001  0.000
  0.000  0.001 -0.001  0.370  0.000
  0.001  0.000  0.000  0.000  0.996
atomic mag. moment =     1.233723
atom    4   Tr[ns(na)] (up, down, total) =   4.96210  3.72838  8.69048
   spin  1
    eigenvalues: 
  0.985  0.985  0.997  0.997  0.997
    eigenvectors:
  0.000  1.000  0.000  0.000  0.000
  0.000  0.000  0.152  0.500  0.348
  0.000  0.000  0.152  0.500  0.348
  1.000  0.000  0.000  0.000  0.000
  0.000  0.000  0.696  0.000  0.304
    occupations:
  0.985  0.000  0.000  0.000  0.000
  0.000  0.997  0.000  0.000  0.000
  0.000  0.000  0.997  0.000  0.000
  0.000  0.000  0.000  0.985  0.000
  0.000  0.000  0.000  0.000  0.997
   spin  2
    eigenvalues: 
  0.370  0.370  0.996  0.996  0.996
    eigenvectors:
  1.000  0.000  0.000  0.000  0.000
  0.000  0.000  0.166  0.500  0.334
  0.000  0.000  0.166  0.500  0.334
  0.000  1.000  0.000  0.000  0.000
  0.000  0.000  0.667  0.000  0.333
    occupations:
  0.370  0.000  0.000  0.000  0.001
  0.000  0.996  0.000  0.001  0.000
  0.000  0.000  0.996 -0.001  0.000
  0.000  0.001 -0.001  0.370  0.000
  0.001  0.000  0.000  0.000  0.996
atomic mag. moment =     1.233723
atom    5   Tr[ns(na)] (up, down, total) =   3.72838  4.96210  8.69049
   spin  1
    eigenvalues: 
  0.370  0.370  0.996  0.996  0.996
    eigenvectors:
  1.000  0.000  0.000  0.000  0.000
  0.000  0.000  0.166  0.500  0.334
  0.000  0.000  0.166  0.500  0.334
  0.000  1.000  0.000  0.000  0.000
  0.000  0.000  0.667  0.000  0.333
    occupations:
  0.370  0.000  0.000  0.000  0.001
  0.000  0.996  0.000  0.001  0.000
  0.000  0.000  0.996 -0.001  0.000
  0.000  0.001 -0.001  0.370  0.000
  0.001  0.000  0.000  0.000  0.996
   spin  2
    eigenvalues: 
  0.985  0.985  0.997  0.997  0.997
    eigenvectors:
  0.000  1.000  0.000  0.000  0.000
  0.000  0.000  0.152  0.500  0.348
  0.000  0.000  0.152  0.500  0.348
  1.000  0.000  0.000  0.000  0.000
  0.000  0.000  0.696  0.000  0.304
    occupations:
  0.985  0.000  0.000  0.000  0.000
  0.000  0.997  0.000  0.000  0.000
  0.000  0.000  0.997  0.000  0.000
  0.000  0.000  0.000  0.985  0.000
  0.000  0.000  0.000  0.000  0.997
atomic mag. moment =    -1.233722
atom    6   Tr[ns(na)] (up, down, total) =   3.72838  4.96210  8.69049
   spin  1
    eigenvalues: 
  0.370  0.370  0.996  0.996  0.996
    eigenvectors:
  0.250  0.750  0.000  0.000  0.000
  0.000  0.000  0.667  0.000  0.333
  0.000  0.000  0.166  0.500  0.334
  0.750  0.250  0.000  0.000  0.000
  0.000  0.000  0.166  0.500  0.334
    occupations:
  0.370  0.000  0.000  0.000  0.001
  0.000  0.996  0.000  0.001  0.000
  0.000  0.000  0.996 -0.001  0.000
  0.000  0.001 -0.001  0.370  0.000
  0.001  0.000  0.000  0.000  0.996
   spin  2
    eigenvalues: 
  0.985  0.985  0.997  0.997  0.997
    eigenvectors:
  0.750  0.250  0.000  0.000  0.000
  0.000  0.000  0.696  0.000  0.304
  0.000  0.000  0.152  0.500  0.348
  0.250  0.750  0.000  0.000  0.000
  0.000  0.000  0.152  0.500  0.348
    occupations:
  0.985  0.000  0.000  0.000  0.000
  0.000  0.997  0.000  0.000  0.000
  0.000  0.000  0.997  0.000  0.000
  0.000  0.000  0.000  0.985  0.000
  0.000  0.000  0.000  0.000  0.997
atomic mag. moment =    -1.233722
atom    7   Tr[ns(na)] (up, down, total) =   3.72838  4.96210  8.69049
   spin  1
    eigenvalues: 
  0.370  0.370  0.996  0.996  0.996
    eigenvectors:
  0.250  0.750  0.000  0.000  0.000
  0.000  0.000  0.166  0.500  0.334
  0.000  0.000  0.667  0.000  0.333
  0.750  0.250  0.000  0.000  0.000
  0.000  0.000  0.166  0.500  0.334
    occupations:
  0.370  0.000  0.000  0.000  0.001
  0.000  0.996  0.000  0.001  0.000
  0.000  0.000  0.996 -0.001  0.000
  0.000  0.001 -0.001  0.370  0.000
  0.001  0.000  0.000  0.000  0.996
   spin  2
    eigenvalues: 
  0.985  0.985  0.997  0.997  0.997
    eigenvectors:
  0.750  0.250  0.000  0.000  0.000
  0.000  0.000  0.152  0.500  0.348
  0.000  0.000  0.696  0.000  0.304
  0.250  0.750  0.000  0.000  0.000
  0.000  0.000  0.152  0.500  0.348
    occupations:
  0.985  0.000  0.000  0.000  0.000
  0.000  0.997  0.000  0.000  0.000
  0.000  0.000  0.997  0.000  0.000
  0.000  0.000  0.000  0.985  0.000
  0.000  0.000  0.000  0.000  0.997
atomic mag. moment =    -1.233722
atom    8   Tr[ns(na)] (up, down, total) =   3.72839  4.96210  8.69049
   spin  1
    eigenvalues: 
  0.370  0.370  0.996  0.996  0.996
    eigenvectors:
  0.070  0.930  0.000  0.000  0.000
  0.000  0.000  0.053  0.614  0.333
  0.000  0.000  0.317  0.349  0.333
  0.930  0.070  0.000  0.000  0.000
  0.000  0.000  0.630  0.037  0.333
    occupations:
  0.370  0.000  0.000  0.000  0.001
  0.000  0.996  0.000  0.001  0.000
  0.000  0.000  0.996 -0.001  0.000
  0.000  0.001 -0.001  0.370  0.000
  0.001  0.000  0.000  0.000  0.996
   spin  2
    eigenvalues: 
  0.985  0.985  0.997  0.997  0.997
    eigenvectors:
  0.782  0.218  0.000  0.000  0.000
  0.000  0.000  0.187  0.479  0.333
  0.000  0.000  0.147  0.520  0.333
  0.218  0.782  0.000  0.000  0.000
  0.000  0.000  0.666  0.001  0.333
    occupations:
  0.985  0.000  0.000  0.000  0.000
  0.000  0.997  0.000  0.000  0.000
  0.000  0.000  0.997  0.000  0.000
  0.000  0.000  0.000  0.985  0.000
  0.000  0.000  0.000  0.000  0.997
atomic mag. moment =    -1.233714
atom    9   Tr[ns(na)] (up, down, total) =   2.81402  2.81402  5.62805
   spin  1
    eigenvalues: 
  0.938  0.938  0.938
    eigenvectors:
  0.670  0.000  0.330
  0.165  0.500  0.335
  0.165  0.500  0.335
    occupations:
  0.938  0.000  0.000
  0.000  0.938  0.000
  0.000  0.000  0.938
   spin  2
    eigenvalues: 
  0.938  0.938  0.938
    eigenvectors:
  0.670  0.000  0.330
  0.165  0.500  0.335
  0.165  0.500  0.335
    occupations:
  0.938  0.000  0.000
  0.000  0.938  0.000
  0.000  0.000  0.938
atomic mag. moment =     0.000000
atom   10   Tr[ns(na)] (up, down, total) =   2.81402  2.81403  5.62805
   spin  1
    eigenvalues: 
  0.938  0.938  0.938
    eigenvectors:
  0.383  0.283  0.333
  0.594  0.073  0.333
  0.023  0.644  0.333
    occupations:
  0.938  0.000  0.000
  0.000  0.938  0.000
  0.000  0.000  0.938
   spin  2
    eigenvalues: 
  0.938  0.938  0.938
    eigenvectors:
  0.554  0.113  0.333
  0.439  0.227  0.333
  0.007  0.660  0.333
    occupations:
  0.938  0.000  0.000
  0.000  0.938  0.000
  0.000  0.000  0.938
atomic mag. moment =    -0.000001
atom   11   Tr[ns(na)] (up, down, total) =   2.81402  2.81402  5.62805
   spin  1
    eigenvalues: 
  0.938  0.938  0.938
    eigenvectors:
  0.165  0.500  0.335
  0.165  0.500  0.335
  0.670  0.000  0.330
    occupations:
  0.938  0.000  0.000
  0.000  0.938  0.000
  0.000  0.000  0.938
   spin  2
    eigenvalues: 
  0.938  0.938  0.938
    eigenvectors:
  0.165  0.500  0.335
  0.165  0.500  0.335
  0.670  0.000  0.330
    occupations:
  0.938  0.000  0.000
  0.000  0.938  0.000
  0.000  0.000  0.938
atomic mag. moment =     0.000000
atom   12   Tr[ns(na)] (up, down, total) =   2.81402  2.81402  5.62805
   spin  1
    eigenvalues: 
  0.938  0.938  0.938
    eigenvectors:
  0.165  0.500  0.335
  0.670  0.000  0.330
  0.165  0.500  0.335
    occupations:
  0.938  0.000  0.000
  0.000  0.938  0.000
  0.000  0.000  0.938
   spin  2
    eigenvalues: 
  0.938  0.938  0.938
    eigenvectors:
  0.165  0.500  0.335
  0.670  0.000  0.330
  0.165  0.500  0.335
    occupations:
  0.938  0.000  0.000
  0.000  0.938  0.000
  0.000  0.000  0.938
atomic mag. moment =     0.000000
atom   13   Tr[ns(na)] (up, down, total) =   2.81402  2.81402  5.62805
   spin  1
    eigenvalues: 
  0.938  0.938  0.938
    eigenvectors:
  0.165  0.500  0.335
  0.165  0.500  0.335
  0.670  0.000  0.330
    occupations:
  0.938  0.000  0.000
  0.000  0.938  0.000
  0.000  0.000  0.938
   spin  2
    eigenvalues: 
  0.938  0.938  0.938
    eigenvectors:
  0.165  0.500  0.335
  0.165  0.500  0.335
  0.670  0.000  0.330
    occupations:
  0.938  0.000  0.000
  0.000  0.938  0.000
  0.000  0.000  0.938
atomic mag. moment =     0.000000
atom   14   Tr[ns(na)] (up, down, total) =   2.81402  2.81402  5.62805
   spin  1
    eigenvalues: 
  0.938  0.938  0.938
    eigenvectors:
  0.165  0.500  0.335
  0.670  0.000  0.330
  0.165  0.500  0.335
    occupations:
  0.938  0.000  0.000
  0.000  0.938  0.000
  0.000  0.000  0.938
   spin  2
    eigenvalues: 
  0.938  0.938  0.938
    eigenvectors:
  0.165  0.500  0.335
  0.670  0.000  0.330
  0.165  0.500  0.335
    occupations:
  0.938  0.000  0.000
  0.000  0.938  0.000
  0.000  0.000  0.938
atomic mag. moment =     0.000000
atom   15   Tr[ns(na)] (up, down, total) =   2.81402  2.81403  5.62805
   spin  1
    eigenvalues: 
  0.938  0.938  0.938
    eigenvectors:
  0.383  0.283  0.333
  0.594  0.073  0.333
  0.023  0.644  0.333
    occupations:
  0.938  0.000  0.000
  0.000  0.938  0.000
  0.000  0.000  0.938
   spin  2
    eigenvalues: 
  0.938  0.938  0.938
    eigenvectors:
  0.554  0.113  0.333
  0.439  0.227  0.333
  0.007  0.660  0.333
    occupations:
  0.938  0.000  0.000
  0.000  0.938  0.000
  0.000  0.000  0.938
atomic mag. moment =    -0.000001
atom   16   Tr[ns(na)] (up, down, total) =   2.81402  2.81402  5.62805
   spin  1
    eigenvalues: 
  0.938  0.938  0.938
    eigenvectors:
  0.670  0.000  0.330
  0.165  0.500  0.335
  0.165  0.500  0.335
    occupations:
  0.938  0.000  0.000
  0.000  0.938  0.000
  0.000  0.000  0.938
   spin  2
    eigenvalues: 
  0.938  0.938  0.938
    eigenvectors:
  0.670  0.000  0.330
  0.165  0.500  0.335
  0.165  0.500  0.335
    occupations:
  0.938  0.000  0.000
  0.000  0.938  0.000
  0.000  0.000  0.938
atomic mag. moment =     0.000000
N of occupied +U levels = 114.5482751
 --- exit write_ns ---
 Atomic wfc used for LDA+U Projector are NOT orthogonalized
     Starting wfc from file

     total cpu time spent up to now is       15.3 secs

     per-process dynamical memory:    86.2 Mb

     Self-consistent Calculation

     iteration #  1     ecut=    30.00 Ry     beta=0.30
     Davidson diagonalization with overlap
     c_bands:  1 eigenvalues not converged
     ethr =  8.16E-12,  avg # of iterations = 17.0
 --- enter write_ns ---
 LDA+U parameters:
U( 1)     =  0.00000000
alpha( 1) =  0.15000000
U( 2)     =  0.00000000
alpha( 2) =  0.00000000
U( 3)     =  0.00000000
alpha( 3) =  0.00000000
U( 4)     =  0.00000000
alpha( 4) =  0.00000000
atom    1   Tr[ns(na)] (up, down, total) =   4.95996  3.70089  8.66085
   spin  1
    eigenvalues: 
  0.984  0.984  0.997  0.997  0.997
    eigenvectors:
  0.211  0.789  0.000  0.000  0.000
  0.000  0.000  0.131  0.536  0.333
  0.000  0.000  0.205  0.462  0.333
  0.789  0.211  0.000  0.000  0.000
  0.000  0.000  0.664  0.003  0.333
    occupations:
  0.984  0.000  0.000  0.000  0.000
  0.000  0.997  0.000  0.000  0.000
  0.000  0.000  0.997  0.000  0.000
  0.000  0.000  0.000  0.984  0.000
  0.000  0.000  0.000  0.000  0.997
   spin  2
    eigenvalues: 
  0.357  0.357  0.995  0.995  0.995
    eigenvectors:
  1.000  0.000  0.000  0.000  0.000
  0.000  0.000  0.130  0.537  0.333
  0.000  0.000  0.206  0.461  0.333
  0.000  1.000  0.000  0.000  0.000
  0.000  0.000  0.664  0.003  0.333
    occupations:
  0.357  0.000  0.000  0.000  0.001
  0.000  0.995  0.000  0.001  0.000
  0.000  0.000  0.995 -0.001  0.000
  0.000  0.001 -0.001  0.357  0.000
  0.001  0.000  0.000  0.000  0.995
atomic mag. moment =     1.259072
atom    2   Tr[ns(na)] (up, down, total) =   4.96212  3.72913  8.69125
   spin  1
    eigenvalues: 
  0.985  0.985  0.997  0.997  0.997
    eigenvectors:
  0.250  0.750  0.000  0.000  0.000
  0.000  0.000  0.500  0.210  0.290
  0.000  0.000  0.000  0.580  0.420
  0.750  0.250  0.000  0.000  0.000
  0.000  0.000  0.500  0.210  0.290
    occupations:
  0.985  0.000  0.000  0.000  0.000
  0.000  0.997  0.000  0.000  0.000
  0.000  0.000  0.997  0.000  0.000
  0.000  0.000  0.000  0.985  0.000
  0.000  0.000  0.000  0.000  0.997
   spin  2
    eigenvalues: 
  0.371  0.371  0.996  0.996  0.996
    eigenvectors:
  0.750  0.250  0.000  0.000  0.000
  0.000  0.000  0.500  0.484  0.016
  0.000  0.000  0.000  0.032  0.968
  0.250  0.750  0.000  0.000  0.000
  0.000  0.000  0.500  0.484  0.016
    occupations:
  0.371  0.000  0.001  0.000  0.001
  0.000  0.996  0.000  0.001  0.000
  0.001  0.000  0.996 -0.001  0.000
  0.000  0.001 -0.001  0.371  0.000
  0.001  0.000  0.000  0.000  0.996
atomic mag. moment =     1.232993
atom    3   Tr[ns(na)] (up, down, total) =   4.96212  3.72913  8.69125
   spin  1
    eigenvalues: 
  0.985  0.985  0.997  0.997  0.997
    eigenvectors:
  0.250  0.750  0.000  0.000  0.000
  0.000  0.000  0.000  0.580  0.420
  0.000  0.000  0.500  0.210  0.290
  0.750  0.250  0.000  0.000  0.000
  0.000  0.000  0.500  0.210  0.290
    occupations:
  0.985  0.000  0.000  0.000  0.000
  0.000  0.997  0.000  0.000  0.000
  0.000  0.000  0.997  0.000  0.000
  0.000  0.000  0.000  0.985  0.000
  0.000  0.000  0.000  0.000  0.997
   spin  2
    eigenvalues: 
  0.371  0.371  0.996  0.996  0.996
    eigenvectors:
  0.750  0.250  0.000  0.000  0.000
  0.000  0.000  0.000  0.032  0.968
  0.000  0.000  0.500  0.484  0.016
  0.250  0.750  0.000  0.000  0.000
  0.000  0.000  0.500  0.484  0.016
    occupations:
  0.371  0.001  0.000  0.000  0.001
  0.001  0.996  0.000  0.001  0.000
  0.000  0.000  0.996 -0.001  0.000
  0.000  0.001 -0.001  0.371  0.000
  0.001  0.000  0.000  0.000  0.996
atomic mag. moment =     1.232993
atom    4   Tr[ns(na)] (up, down, total) =   4.96212  3.72913  8.69125
   spin  1
    eigenvalues: 
  0.985  0.985  0.997  0.997  0.997
    eigenvectors:
  1.000  0.000  0.000  0.000  0.000
  0.000  0.000  0.500  0.210  0.290
  0.000  0.000  0.500  0.210  0.290
  0.000  1.000  0.000  0.000  0.000
  0.000  0.000  0.000  0.580  0.420
    occupations:
  0.985  0.000  0.000  0.000  0.000
  0.000  0.997  0.000  0.000  0.000
  0.000  0.000  0.997  0.000  0.000
  0.000  0.000  0.000  0.985  0.000
  0.000  0.000  0.000  0.000  0.997
   spin  2
    eigenvalues: 
  0.371  0.371  0.996  0.996  0.996
    eigenvectors:
  0.000  1.000  0.000  0.000  0.000
  0.000  0.000  0.500  0.484  0.016
  0.000  0.000  0.500  0.484  0.016
  1.000  0.000  0.000  0.000  0.000
  0.000  0.000  0.000  0.032  0.968
    occupations:
  0.371  0.000  0.000  0.000  0.001
  0.000  0.996  0.000  0.001  0.000
  0.000  0.000  0.996 -0.001  0.000
  0.000  0.001 -0.001  0.371  0.000
  0.001  0.000  0.000  0.000  0.996
atomic mag. moment =     1.232993
atom    5   Tr[ns(na)] (up, down, total) =   3.72848  4.96219  8.69067
   spin  1
    eigenvalues: 
  0.370  0.371  0.996  0.996  0.996
    eigenvectors:
  0.000  1.000  0.000  0.000  0.000
  0.000  0.000  0.500  0.172  0.328
  0.000  0.000  0.500  0.172  0.328
  1.000  0.000  0.000  0.000  0.000
  0.000  0.000  0.000  0.657  0.343
    occupations:
  0.371  0.000  0.000  0.000  0.001
  0.000  0.996  0.000  0.001  0.000
  0.000  0.000  0.996 -0.001  0.000
  0.000  0.001 -0.001  0.370  0.000
  0.001  0.000  0.000  0.000  0.996
   spin  2
    eigenvalues: 
  0.985  0.985  0.997  0.997  0.998
    eigenvectors:
  0.000  1.000  0.000  0.000  0.000
  0.000  0.000  0.499  0.500  0.001
  0.000  0.000  0.499  0.500  0.001
  1.000  0.000  0.000  0.000  0.000
  0.000  0.000  0.002  0.000  0.998
    occupations:
  0.985  0.000  0.000  0.000  0.000
  0.000  0.997  0.000  0.000  0.000
  0.000  0.000  0.997  0.000  0.000
  0.000  0.000  0.000  0.985  0.000
  0.000  0.000  0.000  0.000  0.998
atomic mag. moment =    -1.233712
atom    6   Tr[ns(na)] (up, down, total) =   3.72848  4.96219  8.69067
   spin  1
    eigenvalues: 
  0.370  0.371  0.996  0.996  0.996
    eigenvectors:
  0.750  0.250  0.000  0.000  0.000
  0.000  0.000  0.000  0.657  0.343
  0.000  0.000  0.500  0.172  0.328
  0.250  0.750  0.000  0.000  0.000
  0.000  0.000  0.500  0.172  0.328
    occupations:
  0.371  0.000  0.000  0.000  0.001
  0.000  0.996  0.000  0.001  0.000
  0.000  0.000  0.996 -0.001  0.000
  0.000  0.001 -0.001  0.371  0.000
  0.001  0.000  0.000  0.000  0.996
   spin  2
    eigenvalues: 
  0.985  0.985  0.997  0.997  0.998
    eigenvectors:
  0.750  0.250  0.000  0.000  0.000
  0.000  0.000  0.002  0.000  0.998
  0.000  0.000  0.499  0.500  0.001
  0.250  0.750  0.000  0.000  0.000
  0.000  0.000  0.499  0.500  0.001
    occupations:
  0.985  0.000  0.000  0.000  0.000
  0.000  0.998  0.000  0.000  0.000
  0.000  0.000  0.997  0.000  0.000
  0.000  0.000  0.000  0.985  0.000
  0.000  0.000  0.000  0.000  0.997
atomic mag. moment =    -1.233712
atom    7   Tr[ns(na)] (up, down, total) =   3.72848  4.96219  8.69067
   spin  1
    eigenvalues: 
  0.370  0.371  0.996  0.996  0.996
    eigenvectors:
  0.750  0.250  0.000  0.000  0.000
  0.000  0.000  0.500  0.172  0.328
  0.000  0.000  0.000  0.657  0.343
  0.250  0.750  0.000  0.000  0.000
  0.000  0.000  0.500  0.172  0.328
    occupations:
  0.371  0.000  0.000  0.000  0.001
  0.000  0.996  0.000  0.001  0.000
  0.000  0.000  0.996 -0.001  0.000
  0.000  0.001 -0.001  0.371  0.000
  0.001  0.000  0.000  0.000  0.996
   spin  2
    eigenvalues: 
  0.985  0.985  0.997  0.997  0.998
    eigenvectors:
  0.750  0.250  0.000  0.000  0.000
  0.000  0.000  0.499  0.500  0.001
  0.000  0.000  0.002  0.000  0.998
  0.250  0.750  0.000  0.000  0.000
  0.000  0.000  0.499  0.500  0.001
    occupations:
  0.985  0.000  0.000  0.000  0.000
  0.000  0.997  0.000  0.000  0.000
  0.000  0.000  0.998  0.000  0.000
  0.000  0.000  0.000  0.985  0.000
  0.000  0.000  0.000  0.000  0.997
atomic mag. moment =    -1.233712
atom    8   Tr[ns(na)] (up, down, total) =   3.73048  4.96409  8.69457
   spin  1
    eigenvalues: 
  0.372  0.372  0.996  0.996  0.996
    eigenvectors:
  0.661  0.339  0.000  0.000  0.000
  0.000  0.000  0.139  0.528  0.333
  0.000  0.000  0.196  0.471  0.333
  0.339  0.661  0.000  0.000  0.000
  0.000  0.000  0.665  0.002  0.333
    occupations:
  0.372  0.000  0.000  0.000  0.001
  0.000  0.996  0.000  0.001  0.000
  0.000  0.000  0.996 -0.001  0.000
  0.000  0.001 -0.001  0.372  0.000
  0.001  0.000  0.000  0.000  0.996
   spin  2
    eigenvalues: 
  0.986  0.986  0.997  0.997  0.997
    eigenvectors:
  0.259  0.741  0.000  0.000  0.000
  0.000  0.000  0.017  0.650  0.333
  0.000  0.000  0.401  0.266  0.333
  0.741  0.259  0.000  0.000  0.000
  0.000  0.000  0.582  0.085  0.333
    occupations:
  0.986  0.000  0.000  0.000  0.000
  0.000  0.997  0.000  0.000  0.000
  0.000  0.000  0.997  0.000  0.000
  0.000  0.000  0.000  0.986  0.000
  0.000  0.000  0.000  0.000  0.997
atomic mag. moment =    -1.233609
atom    9   Tr[ns(na)] (up, down, total) =   2.81405  2.81613  5.63017
   spin  1
    eigenvalues: 
  0.938  0.938  0.938
    eigenvectors:
  0.000  0.588  0.412
  0.500  0.206  0.294
  0.500  0.206  0.294
    occupations:
  0.938  0.000  0.000
  0.000  0.938  0.000
  0.000  0.000  0.938
   spin  2
    eigenvalues: 
  0.938  0.938  0.940
    eigenvectors:
  0.000  0.003  0.997
  0.500  0.499  0.001
  0.500  0.499  0.001
    occupations:
  0.940  0.000  0.000
  0.000  0.938  0.000
  0.000  0.000  0.938
atomic mag. moment =    -0.002077
atom   10   Tr[ns(na)] (up, down, total) =   2.81403  2.81406  5.62809
   spin  1
    eigenvalues: 
  0.938  0.938  0.938
    eigenvectors:
  0.435  0.231  0.333
  0.557  0.109  0.333
  0.008  0.659  0.333
    occupations:
  0.938  0.000  0.000
  0.000  0.938  0.000
  0.000  0.000  0.938
   spin  2
    eigenvalues: 
  0.938  0.938  0.938
    eigenvectors:
  0.409  0.258  0.333
  0.577  0.090  0.333
  0.014  0.652  0.333
    occupations:
  0.938  0.000  0.000
  0.000  0.938  0.000
  0.000  0.000  0.938
atomic mag. moment =    -0.000034
atom   11   Tr[ns(na)] (up, down, total) =   2.81405  2.81613  5.63017
   spin  1
    eigenvalues: 
  0.938  0.938  0.938
    eigenvectors:
  0.500  0.206  0.294
  0.500  0.206  0.294
  0.000  0.588  0.412
    occupations:
  0.938  0.000  0.000
  0.000  0.938  0.000
  0.000  0.000  0.938
   spin  2
    eigenvalues: 
  0.938  0.938  0.940
    eigenvectors:
  0.500  0.499  0.001
  0.500  0.499  0.001
  0.000  0.003  0.997
    occupations:
  0.938  0.000  0.000
  0.000  0.938  0.000
  0.000  0.000  0.940
atomic mag. moment =    -0.002077
atom   12   Tr[ns(na)] (up, down, total) =   2.81405  2.81613  5.63017
   spin  1
    eigenvalues: 
  0.938  0.938  0.938
    eigenvectors:
  0.500  0.206  0.294
  0.000  0.588  0.412
  0.500  0.206  0.294
    occupations:
  0.938  0.000  0.000
  0.000  0.938  0.000
  0.000  0.000  0.938
   spin  2
    eigenvalues: 
  0.938  0.938  0.940
    eigenvectors:
  0.500  0.499  0.001
  0.000  0.003  0.997
  0.500  0.499  0.001
    occupations:
  0.938  0.000  0.000
  0.000  0.940  0.000
  0.000  0.000  0.938
atomic mag. moment =    -0.002077
atom   13   Tr[ns(na)] (up, down, total) =   2.81405  2.81613  5.63017
   spin  1
    eigenvalues: 
  0.938  0.938  0.938
    eigenvectors:
  0.500  0.206  0.294
  0.500  0.206  0.294
  0.000  0.588  0.412
    occupations:
  0.938  0.000  0.000
  0.000  0.938  0.000
  0.000  0.000  0.938
   spin  2
    eigenvalues: 
  0.938  0.938  0.940
    eigenvectors:
  0.500  0.499  0.001
  0.500  0.499  0.001
  0.000  0.003  0.997
    occupations:
  0.938  0.000  0.000
  0.000  0.938  0.000
  0.000  0.000  0.940
atomic mag. moment =    -0.002077
atom   14   Tr[ns(na)] (up, down, total) =   2.81405  2.81613  5.63017
   spin  1
    eigenvalues: 
  0.938  0.938  0.938
    eigenvectors:
  0.500  0.206  0.294
  0.000  0.588  0.412
  0.500  0.206  0.294
    occupations:
  0.938  0.000  0.000
  0.000  0.938  0.000
  0.000  0.000  0.938
   spin  2
    eigenvalues: 
  0.938  0.938  0.940
    eigenvectors:
  0.500  0.499  0.001
  0.000  0.003  0.997
  0.500  0.499  0.001
    occupations:
  0.938  0.000  0.000
  0.000  0.940  0.000
  0.000  0.000  0.938
atomic mag. moment =    -0.002077
atom   15   Tr[ns(na)] (up, down, total) =   2.81403  2.81406  5.62809
   spin  1
    eigenvalues: 
  0.938  0.938  0.938
    eigenvectors:
  0.405  0.261  0.333
  0.579  0.087  0.333
  0.016  0.651  0.333
    occupations:
  0.938  0.000  0.000
  0.000  0.938  0.000
  0.000  0.000  0.938
   spin  2
    eigenvalues: 
  0.938  0.938  0.938
    eigenvectors:
  0.446  0.220  0.333
  0.548  0.118  0.333
  0.005  0.661  0.333
    occupations:
  0.938  0.000  0.000
  0.000  0.938  0.000
  0.000  0.000  0.938
atomic mag. moment =    -0.000034
atom   16   Tr[ns(na)] (up, down, total) =   2.81405  2.81613  5.63017
   spin  1
    eigenvalues: 
  0.938  0.938  0.938
    eigenvectors:
  0.000  0.588  0.412
  0.500  0.206  0.294
  0.500  0.206  0.294
    occupations:
  0.938  0.000  0.000
  0.000  0.938  0.000
  0.000  0.000  0.938
   spin  2
    eigenvalues: 
  0.938  0.938  0.940
    eigenvectors:
  0.000  0.003  0.997
  0.500  0.499  0.001
  0.500  0.499  0.001
    occupations:
  0.940  0.000  0.000
  0.000  0.938  0.000
  0.000  0.000  0.938
atomic mag. moment =    -0.002077
N of occupied +U levels = 114.5384159
 --- exit write_ns ---

     total cpu time spent up to now is       49.5 secs

     total energy              =    -941.90031072 Ry
     Harris-Foulkes estimate   =    -941.90055227 Ry
     estimated scf accuracy    <       0.00055834 Ry

     total magnetization       =     0.00 Bohr mag/cell
     absolute magnetization    =    12.68 Bohr mag/cell

     iteration #  2     ecut=    30.00 Ry     beta=0.30
     Davidson diagonalization with overlap
     ethr =  4.36E-07,  avg # of iterations =  2.8

     total cpu time spent up to now is       76.5 secs

     total energy              =    -941.90041804 Ry
     Harris-Foulkes estimate   =    -941.90052758 Ry
     estimated scf accuracy    <       0.00038232 Ry

     total magnetization       =     0.00 Bohr mag/cell
     absolute magnetization    =    12.67 Bohr mag/cell

     iteration #  3     ecut=    30.00 Ry     beta=0.30
     Davidson diagonalization with overlap
     ethr =  2.99E-07,  avg # of iterations =  1.9

     total cpu time spent up to now is      103.0 secs

     total energy              =    -941.90047327 Ry
     Harris-Foulkes estimate   =    -941.90047356 Ry
     estimated scf accuracy    <       0.00000878 Ry

     total magnetization       =     0.00 Bohr mag/cell
     absolute magnetization    =    12.67 Bohr mag/cell

     iteration #  4     ecut=    30.00 Ry     beta=0.30
     Davidson diagonalization with overlap
     ethr =  6.86E-09,  avg # of iterations =  2.0

     total cpu time spent up to now is      129.6 secs

     total energy              =    -941.90047515 Ry
     Harris-Foulkes estimate   =    -941.90047404 Ry
     estimated scf accuracy    <       0.00000295 Ry

     total magnetization       =     0.00 Bohr mag/cell
     absolute magnetization    =    12.67 Bohr mag/cell

     iteration #  5     ecut=    30.00 Ry     beta=0.30
     Davidson diagonalization with overlap
     ethr =  2.31E-09,  avg # of iterations =  1.5

     total cpu time spent up to now is      156.1 secs

     total energy              =    -941.90047554 Ry
     Harris-Foulkes estimate   =    -941.90047541 Ry
     estimated scf accuracy    <       0.00000076 Ry

     total magnetization       =     0.00 Bohr mag/cell
     absolute magnetization    =    12.67 Bohr mag/cell

     iteration #  6     ecut=    30.00 Ry     beta=0.30
     Davidson diagonalization with overlap
     ethr =  5.94E-10,  avg # of iterations =  1.5

     total cpu time spent up to now is      182.7 secs

     total energy              =    -941.90047567 Ry
     Harris-Foulkes estimate   =    -941.90047564 Ry
     estimated scf accuracy    <       0.00000009 Ry

     total magnetization       =     0.00 Bohr mag/cell
     absolute magnetization    =    12.67 Bohr mag/cell

     iteration #  7     ecut=    30.00 Ry     beta=0.30
     Davidson diagonalization with overlap
     ethr =  6.69E-11,  avg # of iterations =  1.6

     total cpu time spent up to now is      209.1 secs

     total energy              =    -941.90047569 Ry
     Harris-Foulkes estimate   =    -941.90047568 Ry
     estimated scf accuracy    <       0.00000002 Ry

     total magnetization       =     0.00 Bohr mag/cell
     absolute magnetization    =    12.67 Bohr mag/cell

     iteration #  8     ecut=    30.00 Ry     beta=0.30
     Davidson diagonalization with overlap
     ethr =  1.23E-11,  avg # of iterations =  2.0

     total cpu time spent up to now is      235.7 secs

     End of self-consistent calculation
 --- enter write_ns ---
 LDA+U parameters:
U( 1)     =  0.00000000
alpha( 1) =  0.15000000
U( 2)     =  0.00000000
alpha( 2) =  0.00000000
U( 3)     =  0.00000000
alpha( 3) =  0.00000000
U( 4)     =  0.00000000
alpha( 4) =  0.00000000
atom    1   Tr[ns(na)] (up, down, total) =   4.96187  3.71279  8.67466
   spin  1
    eigenvalues: 
  0.985  0.985  0.997  0.997  0.997
    eigenvectors:
  0.014  0.986  0.000  0.000  0.000
  0.000  0.000  0.117  0.550  0.333
  0.000  0.000  0.222  0.445  0.333
  0.986  0.014  0.000  0.000  0.000
  0.000  0.000  0.661  0.006  0.333
    occupations:
  0.985  0.000  0.000  0.000  0.000
  0.000  0.997  0.000  0.000  0.000
  0.000  0.000  0.997  0.000  0.000
  0.000  0.000  0.000  0.985  0.000
  0.000  0.000  0.000  0.000  0.997
   spin  2
    eigenvalues: 
  0.363  0.363  0.996  0.996  0.996
    eigenvectors:
  0.801  0.199  0.000  0.000  0.000
  0.000  0.000  0.151  0.516  0.333
  0.000  0.000  0.183  0.484  0.333
  0.199  0.801  0.000  0.000  0.000
  0.000  0.000  0.666  0.001  0.333
    occupations:
  0.363  0.000  0.000  0.000  0.001
  0.000  0.996  0.000  0.001  0.000
  0.000  0.000  0.996 -0.001  0.000
  0.000  0.001 -0.001  0.363  0.000
  0.001  0.000  0.000  0.000  0.996
atomic mag. moment =     1.249074
atom    2   Tr[ns(na)] (up, down, total) =   4.96210  3.72858  8.69068
   spin  1
    eigenvalues: 
  0.985  0.985  0.997  0.997  0.997
    eigenvectors:
  0.750  0.250  0.000  0.000  0.000
  0.000  0.000  0.487  0.500  0.013
  0.000  0.000  0.025  0.000  0.975
  0.250  0.750  0.000  0.000  0.000
  0.000  0.000  0.487  0.500  0.013
    occupations:
  0.985  0.000  0.000  0.000  0.000
  0.000  0.997  0.000  0.000  0.000
  0.000  0.000  0.997  0.000  0.000
  0.000  0.000  0.000  0.985  0.000
  0.000  0.000  0.000  0.000  0.997
   spin  2
    eigenvalues: 
  0.370  0.371  0.996  0.996  0.996
    eigenvectors:
  0.750  0.250  0.000  0.000  0.000
  0.000  0.000  0.500  0.415  0.085
  0.000  0.000  0.000  0.170  0.830
  0.250  0.750  0.000  0.000  0.000
  0.000  0.000  0.500  0.415  0.085
    occupations:
  0.371  0.000  0.000  0.000  0.001
  0.000  0.996  0.000  0.001  0.000
  0.000  0.000  0.996 -0.001  0.000
  0.000  0.001 -0.001  0.371  0.000
  0.001  0.000  0.000  0.000  0.996
atomic mag. moment =     1.233519
atom    3   Tr[ns(na)] (up, down, total) =   4.96210  3.72858  8.69068
   spin  1
    eigenvalues: 
  0.985  0.985  0.997  0.997  0.997
    eigenvectors:
  0.750  0.250  0.000  0.000  0.000
  0.000  0.000  0.025  0.000  0.975
  0.000  0.000  0.487  0.500  0.013
  0.250  0.750  0.000  0.000  0.000
  0.000  0.000  0.487  0.500  0.013
    occupations:
  0.985  0.000  0.000  0.000  0.000
  0.000  0.997  0.000  0.000  0.000
  0.000  0.000  0.997  0.000  0.000
  0.000  0.000  0.000  0.985  0.000
  0.000  0.000  0.000  0.000  0.997
   spin  2
    eigenvalues: 
  0.370  0.371  0.996  0.996  0.996
    eigenvectors:
  0.750  0.250  0.000  0.000  0.000
  0.000  0.000  0.000  0.170  0.830
  0.000  0.000  0.500  0.415  0.085
  0.250  0.750  0.000  0.000  0.000
  0.000  0.000  0.500  0.415  0.085
    occupations:
  0.371  0.000  0.000  0.000  0.001
  0.000  0.996  0.000  0.001  0.000
  0.000  0.000  0.996 -0.001  0.000
  0.000  0.001 -0.001  0.371  0.000
  0.001  0.000  0.000  0.000  0.996
atomic mag. moment =     1.233519
atom    4   Tr[ns(na)] (up, down, total) =   4.96210  3.72858  8.69068
   spin  1
    eigenvalues: 
  0.985  0.985  0.997  0.997  0.997
    eigenvectors:
  0.000  1.000  0.000  0.000  0.000
  0.000  0.000  0.487  0.500  0.013
  0.000  0.000  0.487  0.500  0.013
  1.000  0.000  0.000  0.000  0.000
  0.000  0.000  0.025  0.000  0.975
    occupations:
  0.985  0.000  0.000  0.000  0.000
  0.000  0.997  0.000  0.000  0.000
  0.000  0.000  0.997  0.000  0.000
  0.000  0.000  0.000  0.985  0.000
  0.000  0.000  0.000  0.000  0.997
   spin  2
    eigenvalues: 
  0.370  0.371  0.996  0.996  0.996
    eigenvectors:
  0.000  1.000  0.000  0.000  0.000
  0.000  0.000  0.500  0.415  0.085
  0.000  0.000  0.500  0.415  0.085
  1.000  0.000  0.000  0.000  0.000
  0.000  0.000  0.000  0.170  0.830
    occupations:
  0.371  0.000  0.000  0.000  0.001
  0.000  0.996  0.000  0.001  0.000
  0.000  0.000  0.996 -0.001  0.000
  0.000  0.001 -0.001  0.370  0.000
  0.001  0.000  0.000  0.000  0.996
atomic mag. moment =     1.233519
atom    5   Tr[ns(na)] (up, down, total) =   3.72853  4.96213  8.69066
   spin  1
    eigenvalues: 
  0.371  0.371  0.996  0.996  0.996
    eigenvectors:
  1.000  0.000  0.000  0.000  0.000
  0.000  0.000  0.500  0.192  0.308
  0.000  0.000  0.500  0.192  0.308
  0.000  1.000  0.000  0.000  0.000
  0.000  0.000  0.000  0.615  0.385
    occupations:
  0.371  0.000  0.000  0.000  0.001
  0.000  0.996  0.000  0.001  0.000
  0.000  0.000  0.996 -0.001  0.000
  0.000  0.001 -0.001  0.371  0.000
  0.001  0.000  0.000  0.000  0.996
   spin  2
    eigenvalues: 
  0.985  0.985  0.997  0.997  0.998
    eigenvectors:
  0.000  1.000  0.000  0.000  0.000
  0.000  0.000  0.500  0.496  0.004
  0.000  0.000  0.500  0.496  0.004
  1.000  0.000  0.000  0.000  0.000
  0.000  0.000  0.000  0.008  0.992
    occupations:
  0.985  0.000  0.000  0.000  0.000
  0.000  0.997  0.000  0.000  0.000
  0.000  0.000  0.997  0.000  0.000
  0.000  0.000  0.000  0.985  0.000
  0.000  0.000  0.000  0.000  0.998
atomic mag. moment =    -1.233595
atom    6   Tr[ns(na)] (up, down, total) =   3.72853  4.96213  8.69066
   spin  1
    eigenvalues: 
  0.371  0.371  0.996  0.996  0.996
    eigenvectors:
  0.250  0.750  0.000  0.000  0.000
  0.000  0.000  0.000  0.615  0.385
  0.000  0.000  0.500  0.192  0.308
  0.750  0.250  0.000  0.000  0.000
  0.000  0.000  0.500  0.192  0.308
    occupations:
  0.371  0.000  0.000  0.000  0.001
  0.000  0.996  0.000  0.001  0.000
  0.000  0.000  0.996 -0.001  0.000
  0.000  0.001 -0.001  0.371  0.000
  0.001  0.000  0.000  0.000  0.996
   spin  2
    eigenvalues: 
  0.985  0.985  0.997  0.997  0.998
    eigenvectors:
  0.750  0.250  0.000  0.000  0.000
  0.000  0.000  0.000  0.008  0.992
  0.000  0.000  0.500  0.496  0.004
  0.250  0.750  0.000  0.000  0.000
  0.000  0.000  0.500  0.496  0.004
    occupations:
  0.985  0.000  0.000  0.000  0.000
  0.000  0.998  0.000  0.000  0.000
  0.000  0.000  0.997  0.000  0.000
  0.000  0.000  0.000  0.985  0.000
  0.000  0.000  0.000  0.000  0.997
atomic mag. moment =    -1.233595
atom    7   Tr[ns(na)] (up, down, total) =   3.72853  4.96213  8.69066
   spin  1
    eigenvalues: 
  0.371  0.371  0.996  0.996  0.996
    eigenvectors:
  0.250  0.750  0.000  0.000  0.000
  0.000  0.000  0.500  0.192  0.308
  0.000  0.000  0.000  0.615  0.385
  0.750  0.250  0.000  0.000  0.000
  0.000  0.000  0.500  0.192  0.308
    occupations:
  0.371  0.000  0.000  0.000  0.001
  0.000  0.996  0.000  0.001  0.000
  0.000  0.000  0.996 -0.001  0.000
  0.000  0.001 -0.001  0.371  0.000
  0.001  0.000  0.000  0.000  0.996
   spin  2
    eigenvalues: 
  0.985  0.985  0.997  0.997  0.998
    eigenvectors:
  0.750  0.250  0.000  0.000  0.000
  0.000  0.000  0.500  0.496  0.004
  0.000  0.000  0.000  0.008  0.992
  0.250  0.750  0.000  0.000  0.000
  0.000  0.000  0.500  0.496  0.004
    occupations:
  0.985  0.000  0.000  0.000  0.000
  0.000  0.997  0.000  0.000  0.000
  0.000  0.000  0.998  0.000  0.000
  0.000  0.000  0.000  0.985  0.000
  0.000  0.000  0.000  0.000  0.997
atomic mag. moment =    -1.233595
atom    8   Tr[ns(na)] (up, down, total) =   3.72666  4.96305  8.68971
   spin  1
    eigenvalues: 
  0.370  0.370  0.996  0.996  0.996
    eigenvectors:
  0.608  0.392  0.000  0.000  0.000
  0.000  0.000  0.132  0.535  0.333
  0.000  0.000  0.204  0.462  0.333
  0.392  0.608  0.000  0.000  0.000
  0.000  0.000  0.664  0.003  0.333
    occupations:
  0.370  0.000  0.000  0.000  0.001
  0.000  0.996  0.000  0.001  0.000
  0.000  0.000  0.996 -0.001  0.000
  0.000  0.001 -0.001  0.370  0.000
  0.001  0.000  0.000  0.000  0.996
   spin  2
    eigenvalues: 
  0.985  0.985  0.997  0.997  0.997
    eigenvectors:
  0.374  0.626  0.000  0.000  0.000
  0.000  0.000  0.100  0.566  0.333
  0.000  0.000  0.243  0.423  0.333
  0.626  0.374  0.000  0.000  0.000
  0.000  0.000  0.656  0.010  0.333
    occupations:
  0.985  0.000  0.000  0.000  0.000
  0.000  0.997  0.000  0.000  0.000
  0.000  0.000  0.997  0.000  0.000
  0.000  0.000  0.000  0.985  0.000
  0.000  0.000  0.000  0.000  0.997
atomic mag. moment =    -1.236395
atom    9   Tr[ns(na)] (up, down, total) =   2.81391  2.81514  5.62904
   spin  1
    eigenvalues: 
  0.938  0.938  0.938
    eigenvectors:
  0.000  0.356  0.644
  0.500  0.322  0.178
  0.500  0.322  0.178
    occupations:
  0.938  0.000  0.000
  0.000  0.938  0.000
  0.000  0.000  0.938
   spin  2
    eigenvalues: 
  0.938  0.938  0.939
    eigenvectors:
  0.000  0.007  0.993
  0.500  0.496  0.004
  0.500  0.496  0.004
    occupations:
  0.939  0.000  0.000
  0.000  0.938  0.000
  0.000  0.000  0.938
atomic mag. moment =    -0.001229
atom   10   Tr[ns(na)] (up, down, total) =   2.81401  2.81403  5.62803
   spin  1
    eigenvalues: 
  0.938  0.938  0.938
    eigenvectors:
  0.426  0.240  0.333
  0.564  0.103  0.333
  0.010  0.657  0.333
    occupations:
  0.938  0.000  0.000
  0.000  0.938  0.000
  0.000  0.000  0.938
   spin  2
    eigenvalues: 
  0.938  0.938  0.938
    eigenvectors:
  0.412  0.254  0.333
  0.574  0.092  0.333
  0.013  0.653  0.333
    occupations:
  0.938  0.000  0.000
  0.000  0.938  0.000
  0.000  0.000  0.938
atomic mag. moment =    -0.000019
atom   11   Tr[ns(na)] (up, down, total) =   2.81391  2.81514  5.62904
   spin  1
    eigenvalues: 
  0.938  0.938  0.938
    eigenvectors:
  0.500  0.322  0.178
  0.500  0.322  0.178
  0.000  0.356  0.644
    occupations:
  0.938  0.000  0.000
  0.000  0.938  0.000
  0.000  0.000  0.938
   spin  2
    eigenvalues: 
  0.938  0.938  0.939
    eigenvectors:
  0.500  0.496  0.004
  0.500  0.496  0.004
  0.000  0.007  0.993
    occupations:
  0.938  0.000  0.000
  0.000  0.938  0.000
  0.000  0.000  0.939
atomic mag. moment =    -0.001229
atom   12   Tr[ns(na)] (up, down, total) =   2.81391  2.81514  5.62904
   spin  1
    eigenvalues: 
  0.938  0.938  0.938
    eigenvectors:
  0.500  0.322  0.178
  0.000  0.356  0.644
  0.500  0.322  0.178
    occupations:
  0.938  0.000  0.000
  0.000  0.938  0.000
  0.000  0.000  0.938
   spin  2
    eigenvalues: 
  0.938  0.938  0.939
    eigenvectors:
  0.500  0.496  0.004
  0.000  0.007  0.993
  0.500  0.496  0.004
    occupations:
  0.938  0.000  0.000
  0.000  0.939  0.000
  0.000  0.000  0.938
atomic mag. moment =    -0.001229
atom   13   Tr[ns(na)] (up, down, total) =   2.81391  2.81514  5.62904
   spin  1
    eigenvalues: 
  0.938  0.938  0.938
    eigenvectors:
  0.500  0.322  0.178
  0.500  0.322  0.178
  0.000  0.356  0.644
    occupations:
  0.938  0.000  0.000
  0.000  0.938  0.000
  0.000  0.000  0.938
   spin  2
    eigenvalues: 
  0.938  0.938  0.939
    eigenvectors:
  0.500  0.496  0.004
  0.500  0.496  0.004
  0.000  0.007  0.993
    occupations:
  0.938  0.000  0.000
  0.000  0.938  0.000
  0.000  0.000  0.939
atomic mag. moment =    -0.001229
atom   14   Tr[ns(na)] (up, down, total) =   2.81391  2.81514  5.62904
   spin  1
    eigenvalues: 
  0.938  0.938  0.938
    eigenvectors:
  0.500  0.322  0.178
  0.000  0.356  0.644
  0.500  0.322  0.178
    occupations:
  0.938  0.000  0.000
  0.000  0.938  0.000
  0.000  0.000  0.938
   spin  2
    eigenvalues: 
  0.938  0.938  0.939
    eigenvectors:
  0.500  0.496  0.004
  0.000  0.007  0.993
  0.500  0.496  0.004
    occupations:
  0.938  0.000  0.000
  0.000  0.939  0.000
  0.000  0.000  0.938
atomic mag. moment =    -0.001229
atom   15   Tr[ns(na)] (up, down, total) =   2.81401  2.81403  5.62803
   spin  1
    eigenvalues: 
  0.938  0.938  0.938
    eigenvectors:
  0.471  0.196  0.333
  0.527  0.139  0.333
  0.002  0.665  0.333
    occupations:
  0.938  0.000  0.000
  0.000  0.938  0.000
  0.000  0.000  0.938
   spin  2
    eigenvalues: 
  0.938  0.938  0.938
    eigenvectors:
  0.456  0.211  0.333
  0.541  0.126  0.333
  0.004  0.663  0.333
    occupations:
  0.938  0.000  0.000
  0.000  0.938  0.000
  0.000  0.000  0.938
atomic mag. moment =    -0.000019
atom   16   Tr[ns(na)] (up, down, total) =   2.81391  2.81514  5.62904
   spin  1
    eigenvalues: 
  0.938  0.938  0.938
    eigenvectors:
  0.000  0.356  0.644
  0.500  0.322  0.178
  0.500  0.322  0.178
    occupations:
  0.938  0.000  0.000
  0.000  0.938  0.000
  0.000  0.000  0.938
   spin  2
    eigenvalues: 
  0.938  0.938  0.939
    eigenvectors:
  0.000  0.007  0.993
  0.500  0.496  0.004
  0.500  0.496  0.004
    occupations:
  0.939  0.000  0.000
  0.000  0.938  0.000
  0.000  0.000  0.938
atomic mag. moment =    -0.001229
N of occupied +U levels = 114.5387263
 --- exit write_ns ---

 ------ SPIN UP ------------


          k = 0.0000 0.0000 0.0000 (  2733 PWs)   bands (ev):

    -8.0362  -6.6391  -6.6375  -6.6374  -6.6374  -6.5708  -6.5607  -6.5607
     4.0456   4.0590   4.0590   4.0604   5.3579   5.3581   5.3581   6.5281
     6.5281   6.5347   6.5452   6.5452   6.5685   6.5836   6.5836   7.9966
     7.9966   7.9975   7.9978   7.9987   7.9987   8.8137   8.8137   8.8155
     9.3067   9.3067   9.3092   9.5254   9.5254   9.6677   9.8510   9.8510
     9.8954   9.9033   9.9033  10.1846  10.1846  10.1934  10.4531  10.4606
    10.4606  10.5671  10.5671  10.5682  10.8938  10.8938  11.0197  11.0218
    11.0218  11.1614  11.2447  11.2462  11.2462  11.3665  11.3665  11.3669
    13.5652  13.5652  13.6258  13.6264  13.6264  13.7108  13.7121  13.7121
    13.7725  17.8034  17.8050  17.8050  17.8075

          k = 0.2500-0.2500-0.2500 (  2764 PWs)   bands (ev):

    -7.4005  -7.3999  -6.6158  -6.6110  -6.6095  -6.6063  -6.6061  -6.5998
     5.0723   5.0830   5.0860   5.0907   5.0966   5.1023   6.1189   6.1253
     6.3330   6.3481   6.3989   6.4127   6.4764   6.4896   6.8498   6.8673
     7.0282   7.0384   7.3407   7.3447   7.5017   7.5074   7.6671   7.6710
     9.5915   9.6150   9.7834   9.8027   9.8555   9.8688   9.9844  10.0031
    10.1241  10.1406  10.1742  10.1886  10.4944  10.5004  10.6142  10.6146
    10.6443  10.6452  10.8414  10.8449  10.9417  10.9440  11.2242  11.2243
    11.2357  11.2373  11.2808  11.2816  11.3111  11.3131  11.4221  11.4232
    13.0628  13.0648  13.0672  13.0692  13.0742  13.0774  13.0872  13.0899
    16.5017  16.5044  19.6554  19.6635  19.7225

          k = 0.0000 0.0000-0.5000 (  2762 PWs)   bands (ev):

    -7.2631  -7.2594  -6.7666  -6.7656  -6.7655  -6.7600  -6.4618  -6.4527
     5.0348   5.0448   5.0456   5.0558   5.7893   5.7935   6.1249   6.1288
     6.1339   6.1366   6.4203   6.4280   6.6510   6.6611   6.6850   6.7069
     6.7432   6.7500   6.7555   6.7605   8.1782   8.1842   8.1884   8.1928
     9.2129   9.2392   9.8992   9.9080   9.9809   9.9897  10.0041  10.0195
    10.0232  10.0243  10.1320  10.1472  10.3205  10.3373  10.4528  10.4650
    10.4852  10.4900  10.5571  10.5701  10.8937  10.8957  10.9802  10.9841
    11.1330  11.1352  11.2162  11.2185  11.3153  11.3175  11.3306  11.3323
    12.4780  12.4796  12.7357  12.7369  13.5365  13.5376  13.6383  13.6398
    17.6877  17.6920  19.2717  19.2718  19.2720

          k =-0.2500-0.2500-0.2500 (  2764 PWs)   bands (ev):

    -7.4050  -7.3954  -6.6225  -6.6123  -6.6123  -6.6011  -6.6000  -6.6000
     5.0326   5.0420   5.0420   5.1372   5.1384   5.1384   6.1072   6.1413
     6.2682   6.2784   6.2784   6.7179   6.7179   6.7183   6.7468   6.7599
     6.7599   6.9773   6.9773   7.4833   7.4833   7.4834   7.8994   7.8994
     9.4558   9.4558   9.4668   9.6385   9.6385  10.0698  10.0815  10.0815
    10.0945  10.4357  10.4357  10.4363  10.4750  10.4750  10.4750  10.7095
    10.7095  10.8091  10.8097  10.8097  10.8573  11.0359  11.0364  11.0364
    11.2248  11.2262  11.2262  11.2938  11.2938  11.3847  11.3847  11.3859
    13.0622  13.0638  13.0638  13.0834  13.0834  13.0923  13.0946  13.0946
    16.4251  16.5842  19.6295  19.6443  19.6443

 ------ SPIN DOWN ----------


          k = 0.0000 0.0000 0.0000 (  2733 PWs)   bands (ev):

    -8.0380  -6.6404  -6.6403  -6.6403  -6.6392  -6.5716  -6.5641  -6.5641
     4.0432   4.0576   4.0576   4.0591   5.3567   5.3567   5.3567   6.5258
     6.5258   6.5339   6.5398   6.5398   6.5674   6.5721   6.5721   7.9943
     7.9943   7.9953   7.9961   7.9972   7.9972   8.8078   8.8089   8.8089
     9.3046   9.3046   9.3068   9.5166   9.5166   9.6619   9.8562   9.8562
     9.8953   9.9001   9.9001  10.1849  10.1849  10.1872  10.4529  10.4577
    10.4577  10.5653  10.5653  10.5664  10.9031  10.9031  11.0262  11.0291
    11.0291  11.1694  11.2447  11.2608  11.2608  11.3757  11.3757  11.3820
    13.5696  13.5696  13.6253  13.6341  13.6341  13.7108  13.7241  13.7241
    13.7721  17.8030  17.8045  17.8045  17.8075

          k = 0.2500-0.2500-0.2500 (  2764 PWs)   bands (ev):

    -7.4025  -7.4019  -6.6179  -6.6160  -6.6133  -6.6084  -6.6061  -6.6007
     5.0722   5.0728   5.0845   5.0919   5.0942   5.1044   6.1173   6.1230
     6.3308   6.3365   6.3975   6.4029   6.4750   6.4824   6.8486   6.8513
     7.0273   7.0343   7.3398   7.3514   7.5000   7.5129   7.6655   7.6783
     9.5915   9.5930   9.7833   9.7890   9.8548   9.8653   9.9843   9.9890
    10.1239  10.1278  10.1743  10.1745  10.4935  10.4983  10.6126  10.6244
    10.6436  10.6708  10.8402  10.8461  10.9403  10.9472  11.2225  11.2344
    11.2352  11.2511  11.2797  11.2993  11.3111  11.3332  11.4212  11.4340
    13.0626  13.0669  13.0671  13.0742  13.0745  13.0868  13.1124  13.1212
    16.5011  16.5037  19.6638  19.6651  19.7237

          k = 0.0000 0.0000-0.5000 (  2762 PWs)   bands (ev):

    -7.2645  -7.2623  -6.7684  -6.7683  -6.7666  -6.7631  -6.4633  -6.4561
     5.0343   5.0349   5.0451   5.0529   5.7884   5.7941   6.1229   6.1265
     6.1306   6.1350   6.4194   6.4255   6.6505   6.6558   6.6845   6.6930
     6.7411   6.7488   6.7518   6.7600   8.1757   8.1812   8.1855   8.1922
     9.2127   9.2258   9.8988   9.9019   9.9805   9.9836  10.0035  10.0050
    10.0191  10.0322  10.1314  10.1360  10.3195  10.3232  10.4524  10.4530
    10.4847  10.4969  10.5559  10.5571  10.8935  10.9194  10.9802  10.9971
    11.1326  11.1490  11.2156  11.2426  11.3155  11.3300  11.3372  11.3524
    12.4780  12.5044  12.7357  12.7607  13.5363  13.5477  13.6381  13.6553
    17.6862  17.6911  19.2711  19.2714  19.2715

          k =-0.2500-0.2500-0.2500 (  2764 PWs)   bands (ev):

    -7.4064  -7.3980  -6.6241  -6.6241  -6.6231  -6.6020  -6.5944  -6.5944
     5.0292   5.0317   5.0317   5.1359   5.1467   5.1467   6.0993   6.1452
     6.2629   6.2629   6.2643   6.7219   6.7277   6.7277   6.7450   6.7450
     6.7458   6.9655   6.9655   7.4827   7.4935   7.4935   7.9073   7.9073
     9.4457   9.4457   9.4461   9.6263   9.6263  10.0697  10.0699  10.0699
    10.0849  10.4483  10.4483  10.4564  10.4675  10.4675  10.4675  10.7237
    10.7237  10.8052  10.8052  10.8062  10.8697  11.0340  11.0340  11.0348
    11.2247  11.2415  11.2415  11.2922  11.2922  11.3929  11.3929  11.4010
    13.0623  13.0681  13.0681  13.0852  13.0852  13.0921  13.1257  13.1257
    16.4268  16.5807  19.6410  19.6410  19.6427

     the Fermi energy is    11.9548 ev

!    total energy              =    -941.90047570 Ry
     Harris-Foulkes estimate   =    -941.90047569 Ry
     estimated scf accuracy    <          2.3E-09 Ry

     The total energy is the sum of the following terms:

     one-electron contribution =     -56.23253912 Ry
     hartree contribution      =     175.68073149 Ry
     xc contribution           =    -297.58689865 Ry
     ewald contribution        =    -763.85740583 Ry
     Hubbard energy            =       0.09563641 Ry
     smearing contrib. (-TS)   =       0.00000000 Ry

     total magnetization       =     0.00 Bohr mag/cell
     absolute magnetization    =    12.67 Bohr mag/cell

     convergence has been achieved in   8 iterations

     Writing output data file nio.save
 
     init_run     :     13.94s CPU     15.10s WALL (       1 calls)
     electrons    :    207.82s CPU    220.48s WALL (       1 calls)

     Called by init_run:
     wfcinit      :      0.19s CPU      0.22s WALL (       1 calls)
     potinit      :      1.19s CPU      1.36s WALL (       1 calls)

     Called by electrons:
     c_bands      :     35.89s CPU     37.98s WALL (       8 calls)
     sum_band     :     85.96s CPU     87.44s WALL (       8 calls)
     v_of_rho     :      8.43s CPU      9.44s WALL (       9 calls)
     newd         :     84.70s CPU     93.34s WALL (       9 calls)
     mix_rho      :      1.34s CPU      1.49s WALL (       8 calls)

     Called by c_bands:
     init_us_2    :      0.35s CPU      0.38s WALL (      34 calls)
     cegterg      :     34.69s CPU     36.54s WALL (      16 calls)

     Called by *egterg:
     h_psi        :     24.97s CPU     26.03s WALL (      82 calls)
     s_psi        :      2.12s CPU      2.12s WALL (      84 calls)
     g_psi        :      0.11s CPU      0.11s WALL (      66 calls)
     cdiaghg      :      2.18s CPU      2.17s WALL (      80 calls)

     Called by h_psi:
     add_vuspsi   :      1.98s CPU      2.01s WALL (      82 calls)

     General routines
     calbec       :      3.51s CPU      3.52s WALL (     198 calls)
     fft          :      7.60s CPU      8.50s WALL (     267 calls)
     ffts         :      0.09s CPU      0.11s WALL (      34 calls)
     fftw         :     13.20s CPU     14.45s WALL (    7508 calls)
     interpolate  :      1.17s CPU      1.48s WALL (      34 calls)
     davcio       :      0.01s CPU      0.50s WALL (     100 calls)
 
     Parallel routines
     fft_scatter  :      4.10s CPU      4.69s WALL (    7809 calls)
     EXX routines
 
     PWSCF        :  3m42.15s CPU     3m56.08s WALL

 
   This run was terminated on:  12: 0:35  17Jun2012            

=------------------------------------------------------------------------------=
   JOB DONE.
=------------------------------------------------------------------------------=
