
     Program PWSCF v.5.0        starts on 17Jun2012 at 12: 4: 4 

     This program is part of the open-source Quantum ESPRESSO suite
     for quantum simulation of materials; please cite
         "P. Giannozzi et al., J. Phys.:Condens. Matter 21 395502 (2009);
          URL http://www.quantum-espresso.org", 
     in publications or presentations arising from this work. More details at
     http://www.quantum-espresso.org/quote.php

     Parallel version (MPI), running on     4 processors
     K-points division:     npool     =    4

     Current dimensions of program PWSCF are:
     Max number of different atomic species (ntypx) = 10
     Max number of k-points (npk) =  40000
     Max angular momentum in pseudopotentials (lmaxx) =  3
     Waiting for input...
     Reading input from standard input
               file Ni.pbe-nd-rrkjus.UPF: wavefunction(s)  4S renormalized
               file Ni.pbe-nd-rrkjus.UPF: wavefunction(s)  4S renormalized
               file Ni.pbe-nd-rrkjus.UPF: wavefunction(s)  4S renormalized
               file O.pbe-rrkjus.UPF: wavefunction(s)  2S renormalized

     Subspace diagonalization in iterative solution of the eigenvalue problem:
     a serial algorithm will be used

 
     G-vector sticks info
     --------------------
     sticks:   dense  smooth     PW     G-vecs:    dense   smooth      PW
     Sum        2587    1039    295                86547    22075    3287
 


     bravais-lattice index     =            0
     lattice parameter (alat)  =       7.9000  a.u.
     unit-cell volume          =     986.0780 (a.u.)^3
     number of atoms/cell      =           16
     number of atomic types    =            4
     number of electrons       =       128.00
     number of Kohn-Sham states=           77
     kinetic-energy cutoff     =      30.0000  Ry
     charge density cutoff     =     300.0000  Ry
     convergence threshold     =      1.0E-08
     mixing beta               =       0.3000
     number of iterations used =            8  plain     mixing
     Exchange-correlation      =  SLA  PW   PBE  PBE ( 1 4 3 4 0)
     EXX-fraction              =        0.00

     celldm(1)=   7.900000  celldm(2)=   0.000000  celldm(3)=   0.000000
     celldm(4)=   0.000000  celldm(5)=   0.000000  celldm(6)=   0.000000

     crystal axes: (cart. coord. in units of alat)
               a(1) = (   1.000000   1.000000   0.000000 )  
               a(2) = (   1.000000   0.000000   1.000000 )  
               a(3) = (   0.000000   1.000000   1.000000 )  

     reciprocal axes: (cart. coord. in units 2 pi/alat)
               b(1) = (  0.500000  0.500000 -0.500000 )  
               b(2) = (  0.500000 -0.500000  0.500000 )  
               b(3) = ( -0.500000  0.500000  0.500000 )  


     PseudoPot. # 1 for Ni read from file:
     ../pseudo/Ni.pbe-nd-rrkjus.UPF
     MD5 check sum: 8081f0a005c9a5470caab1a58e82ecb2
     Pseudo is Ultrasoft + core correction, Zval = 10.0
     Generated by new atomic code, or converted to UPF format
     Using radial grid of 1203 points,  6 beta functions with: 
                l(1) =   0
                l(2) =   0
                l(3) =   1
                l(4) =   1
                l(5) =   2
                l(6) =   2
     Q(r) pseudized with 0 coefficients 


     PseudoPot. # 2 for Ni read from file:
     ../pseudo/Ni.pbe-nd-rrkjus.UPF
     MD5 check sum: 8081f0a005c9a5470caab1a58e82ecb2
     Pseudo is Ultrasoft + core correction, Zval = 10.0
     Generated by new atomic code, or converted to UPF format
     Using radial grid of 1203 points,  6 beta functions with: 
                l(1) =   0
                l(2) =   0
                l(3) =   1
                l(4) =   1
                l(5) =   2
                l(6) =   2
     Q(r) pseudized with 0 coefficients 


     PseudoPot. # 3 for Ni read from file:
     ../pseudo/Ni.pbe-nd-rrkjus.UPF
     MD5 check sum: 8081f0a005c9a5470caab1a58e82ecb2
     Pseudo is Ultrasoft + core correction, Zval = 10.0
     Generated by new atomic code, or converted to UPF format
     Using radial grid of 1203 points,  6 beta functions with: 
                l(1) =   0
                l(2) =   0
                l(3) =   1
                l(4) =   1
                l(5) =   2
                l(6) =   2
     Q(r) pseudized with 0 coefficients 


     PseudoPot. # 4 for O  read from file:
     ../pseudo/O.pbe-rrkjus.UPF
     MD5 check sum: 390ba29e75625707450f3bd3f0eb6be9
     Pseudo is Ultrasoft, Zval =  6.0
     Generated by new atomic code, or converted to UPF format
     Using radial grid of 1269 points,  4 beta functions with: 
                l(1) =   0
                l(2) =   0
                l(3) =   1
                l(4) =   1
     Q(r) pseudized with 0 coefficients 


     atomic species   valence    mass     pseudopotential
        Ni1           10.00     1.00000     Ni( 1.00)
        Ni2           10.00     1.00000     Ni( 1.00)
        Ni3           10.00     1.00000     Ni( 1.00)
        O1             6.00     1.00000     O ( 1.00)

     Starting magnetic structure 
     atomic species   magnetization
        Ni1          0.500
        Ni2          0.500
        Ni3         -0.500
        O1           0.000
 -----
     simplified LDA+U calculation, Hubbard_lmax = 2
     atomic species  L   Hubbard U  Hubbard alpha
        Ni1          2    0.000000    0.070000
        Ni2          2    0.000000    0.000000
        Ni3          2    0.000000    0.000000
        O1           1    0.000000    0.000000
 -----

     12 Sym. Ops., with inversion, found



   Cartesian axes

     site n.     atom                  positions (alat units)
         1           Ni1 tau(   1) = (   0.0000000   0.0000000   0.0000000  )
         2           Ni2 tau(   2) = (   1.0000000   0.5000000   0.5000000  )
         3           Ni2 tau(   3) = (   0.5000000   1.0000000   0.5000000  )
         4           Ni2 tau(   4) = (   0.5000000   0.5000000   1.0000000  )
         5           Ni3 tau(   5) = (   0.5000000   0.5000000   0.0000000  )
         6           Ni3 tau(   6) = (   0.5000000   0.0000000   0.5000000  )
         7           Ni3 tau(   7) = (   0.0000000   0.5000000   0.5000000  )
         8           Ni3 tau(   8) = (   1.0000000   1.0000000   1.0000000  )
         9           O1  tau(   9) = (   0.0000000   0.0000000   0.5000000  )
        10           O1  tau(  10) = (   0.5000000   0.5000000   0.5000000  )
        11           O1  tau(  11) = (   0.0000000   0.5000000   1.0000000  )
        12           O1  tau(  12) = (   0.5000000   0.0000000   1.0000000  )
        13           O1  tau(  13) = (   1.0000000   0.5000000   1.0000000  )
        14           O1  tau(  14) = (   0.5000000   1.0000000   1.0000000  )
        15           O1  tau(  15) = (   0.5000000   0.5000000   1.5000000  )
        16           O1  tau(  16) = (   1.0000000   1.0000000   1.5000000  )

     number of k points=     8  gaussian smearing, width (Ry)=  0.0100
                       cart. coord. in units 2pi/alat
        k(    1) = (   0.0000000   0.0000000   0.0000000), wk =   0.1250000
        k(    2) = (   0.2500000  -0.2500000  -0.2500000), wk =   0.3750000
        k(    3) = (   0.0000000   0.0000000  -0.5000000), wk =   0.3750000
        k(    4) = (  -0.2500000  -0.2500000  -0.2500000), wk =   0.1250000
        k(    5) = (   0.0000000   0.0000000   0.0000000), wk =   0.1250000
        k(    6) = (   0.2500000  -0.2500000  -0.2500000), wk =   0.3750000
        k(    7) = (   0.0000000   0.0000000  -0.5000000), wk =   0.3750000
        k(    8) = (  -0.2500000  -0.2500000  -0.2500000), wk =   0.1250000

     Dense  grid:    86547 G-vectors     FFT dimensions: (  64,  64,  64)

     Smooth grid:    22075 G-vectors     FFT dimensions: (  40,  40,  40)

     Largest allocated arrays     est. size (Mb)     dimensions
        Kohn-Sham Wavefunctions         3.25 Mb     (   2764,   77)
        Atomic wavefunctions            3.37 Mb     (   2764,   80)
        NL pseudopotentials             8.77 Mb     (   2764,  208)
        Each V/rho on FFT grid          8.00 Mb     ( 262144,   2)
        Each G-vector array             0.66 Mb     (  86547)
        G-vector shells                 0.00 Mb     (    635)
     Largest temporary arrays     est. size (Mb)     dimensions
        Auxiliary wavefunctions        12.99 Mb     (   2764,  308)
        Each subspace H/S matrix        1.45 Mb     ( 308, 308)
        Each <psi_i|beta_j> matrix      0.24 Mb     (    208,   77)
        Arrays for rho mixing          32.00 Mb     ( 262144,   8)

     Check: negative/imaginary core charge=   -0.000047    0.000000

     The initial density is read from file :
     ./temp/nio.save/charge-density.dat

     Number of +U iterations with fixed ns =  0
     Starting occupations:
 --- enter write_ns ---
 LDA+U parameters:
U( 1)     =  0.00000000
alpha( 1) =  0.07000000
U( 2)     =  0.00000000
alpha( 2) =  0.00000000
U( 3)     =  0.00000000
alpha( 3) =  0.00000000
U( 4)     =  0.00000000
alpha( 4) =  0.00000000
atom    1   Tr[ns(na)] (up, down, total) =   4.96210  3.72839  8.69049
   spin  1
    eigenvalues: 
  0.985  0.985  0.997  0.997  0.997
    eigenvectors:
  0.500  0.500  0.000  0.000  0.000
  0.000  0.000  0.168  0.499  0.333
  0.000  0.000  0.166  0.501  0.333
  0.500  0.500  0.000  0.000  0.000
  0.000  0.000  0.667  0.000  0.333
    occupations:
  0.985  0.000  0.000  0.000  0.000
  0.000  0.997  0.000  0.000  0.000
  0.000  0.000  0.997  0.000  0.000
  0.000  0.000  0.000  0.985  0.000
  0.000  0.000  0.000  0.000  0.997
   spin  2
    eigenvalues: 
  0.370  0.370  0.996  0.996  0.996
    eigenvectors:
  0.003  0.997  0.000  0.000  0.000
  0.000  0.000  0.183  0.483  0.333
  0.000  0.000  0.150  0.516  0.333
  0.997  0.003  0.000  0.000  0.000
  0.000  0.000  0.666  0.001  0.333
    occupations:
  0.370  0.000  0.000  0.000  0.001
  0.000  0.996  0.000  0.001  0.000
  0.000  0.000  0.996 -0.001  0.000
  0.000  0.001 -0.001  0.370  0.000
  0.001  0.000  0.000  0.000  0.996
atomic mag. moment =     1.233715
atom    2   Tr[ns(na)] (up, down, total) =   4.96210  3.72838  8.69048
   spin  1
    eigenvalues: 
  0.985  0.985  0.997  0.997  0.997
    eigenvectors:
  0.750  0.250  0.000  0.000  0.000
  0.000  0.000  0.152  0.500  0.348
  0.000  0.000  0.696  0.000  0.304
  0.250  0.750  0.000  0.000  0.000
  0.000  0.000  0.152  0.500  0.348
    occupations:
  0.985  0.000  0.000  0.000  0.000
  0.000  0.997  0.000  0.000  0.000
  0.000  0.000  0.997  0.000  0.000
  0.000  0.000  0.000  0.985  0.000
  0.000  0.000  0.000  0.000  0.997
   spin  2
    eigenvalues: 
  0.370  0.370  0.996  0.996  0.996
    eigenvectors:
  0.250  0.750  0.000  0.000  0.000
  0.000  0.000  0.166  0.500  0.334
  0.000  0.000  0.667  0.000  0.333
  0.750  0.250  0.000  0.000  0.000
  0.000  0.000  0.166  0.500  0.334
    occupations:
  0.370  0.000  0.000  0.000  0.001
  0.000  0.996  0.000  0.001  0.000
  0.000  0.000  0.996 -0.001  0.000
  0.000  0.001 -0.001  0.370  0.000
  0.001  0.000  0.000  0.000  0.996
atomic mag. moment =     1.233723
atom    3   Tr[ns(na)] (up, down, total) =   4.96210  3.72838  8.69048
   spin  1
    eigenvalues: 
  0.985  0.985  0.997  0.997  0.997
    eigenvectors:
  0.750  0.250  0.000  0.000  0.000
  0.000  0.000  0.696  0.000  0.304
  0.000  0.000  0.152  0.500  0.348
  0.250  0.750  0.000  0.000  0.000
  0.000  0.000  0.152  0.500  0.348
    occupations:
  0.985  0.000  0.000  0.000  0.000
  0.000  0.997  0.000  0.000  0.000
  0.000  0.000  0.997  0.000  0.000
  0.000  0.000  0.000  0.985  0.000
  0.000  0.000  0.000  0.000  0.997
   spin  2
    eigenvalues: 
  0.370  0.370  0.996  0.996  0.996
    eigenvectors:
  0.250  0.750  0.000  0.000  0.000
  0.000  0.000  0.667  0.000  0.333
  0.000  0.000  0.166  0.500  0.334
  0.750  0.250  0.000  0.000  0.000
  0.000  0.000  0.166  0.500  0.334
    occupations:
  0.370  0.000  0.000  0.000  0.001
  0.000  0.996  0.000  0.001  0.000
  0.000  0.000  0.996 -0.001  0.000
  0.000  0.001 -0.001  0.370  0.000
  0.001  0.000  0.000  0.000  0.996
atomic mag. moment =     1.233723
atom    4   Tr[ns(na)] (up, down, total) =   4.96210  3.72838  8.69048
   spin  1
    eigenvalues: 
  0.985  0.985  0.997  0.997  0.997
    eigenvectors:
  0.000  1.000  0.000  0.000  0.000
  0.000  0.000  0.152  0.500  0.348
  0.000  0.000  0.152  0.500  0.348
  1.000  0.000  0.000  0.000  0.000
  0.000  0.000  0.696  0.000  0.304
    occupations:
  0.985  0.000  0.000  0.000  0.000
  0.000  0.997  0.000  0.000  0.000
  0.000  0.000  0.997  0.000  0.000
  0.000  0.000  0.000  0.985  0.000
  0.000  0.000  0.000  0.000  0.997
   spin  2
    eigenvalues: 
  0.370  0.370  0.996  0.996  0.996
    eigenvectors:
  1.000  0.000  0.000  0.000  0.000
  0.000  0.000  0.166  0.500  0.334
  0.000  0.000  0.166  0.500  0.334
  0.000  1.000  0.000  0.000  0.000
  0.000  0.000  0.667  0.000  0.333
    occupations:
  0.370  0.000  0.000  0.000  0.001
  0.000  0.996  0.000  0.001  0.000
  0.000  0.000  0.996 -0.001  0.000
  0.000  0.001 -0.001  0.370  0.000
  0.001  0.000  0.000  0.000  0.996
atomic mag. moment =     1.233723
atom    5   Tr[ns(na)] (up, down, total) =   3.72838  4.96210  8.69049
   spin  1
    eigenvalues: 
  0.370  0.370  0.996  0.996  0.996
    eigenvectors:
  1.000  0.000  0.000  0.000  0.000
  0.000  0.000  0.166  0.500  0.334
  0.000  0.000  0.166  0.500  0.334
  0.000  1.000  0.000  0.000  0.000
  0.000  0.000  0.667  0.000  0.333
    occupations:
  0.370  0.000  0.000  0.000  0.001
  0.000  0.996  0.000  0.001  0.000
  0.000  0.000  0.996 -0.001  0.000
  0.000  0.001 -0.001  0.370  0.000
  0.001  0.000  0.000  0.000  0.996
   spin  2
    eigenvalues: 
  0.985  0.985  0.997  0.997  0.997
    eigenvectors:
  0.000  1.000  0.000  0.000  0.000
  0.000  0.000  0.152  0.500  0.348
  0.000  0.000  0.152  0.500  0.348
  1.000  0.000  0.000  0.000  0.000
  0.000  0.000  0.696  0.000  0.304
    occupations:
  0.985  0.000  0.000  0.000  0.000
  0.000  0.997  0.000  0.000  0.000
  0.000  0.000  0.997  0.000  0.000
  0.000  0.000  0.000  0.985  0.000
  0.000  0.000  0.000  0.000  0.997
atomic mag. moment =    -1.233722
atom    6   Tr[ns(na)] (up, down, total) =   3.72838  4.96210  8.69049
   spin  1
    eigenvalues: 
  0.370  0.370  0.996  0.996  0.996
    eigenvectors:
  0.250  0.750  0.000  0.000  0.000
  0.000  0.000  0.667  0.000  0.333
  0.000  0.000  0.166  0.500  0.334
  0.750  0.250  0.000  0.000  0.000
  0.000  0.000  0.166  0.500  0.334
    occupations:
  0.370  0.000  0.000  0.000  0.001
  0.000  0.996  0.000  0.001  0.000
  0.000  0.000  0.996 -0.001  0.000
  0.000  0.001 -0.001  0.370  0.000
  0.001  0.000  0.000  0.000  0.996
   spin  2
    eigenvalues: 
  0.985  0.985  0.997  0.997  0.997
    eigenvectors:
  0.750  0.250  0.000  0.000  0.000
  0.000  0.000  0.696  0.000  0.304
  0.000  0.000  0.152  0.500  0.348
  0.250  0.750  0.000  0.000  0.000
  0.000  0.000  0.152  0.500  0.348
    occupations:
  0.985  0.000  0.000  0.000  0.000
  0.000  0.997  0.000  0.000  0.000
  0.000  0.000  0.997  0.000  0.000
  0.000  0.000  0.000  0.985  0.000
  0.000  0.000  0.000  0.000  0.997
atomic mag. moment =    -1.233722
atom    7   Tr[ns(na)] (up, down, total) =   3.72838  4.96210  8.69049
   spin  1
    eigenvalues: 
  0.370  0.370  0.996  0.996  0.996
    eigenvectors:
  0.250  0.750  0.000  0.000  0.000
  0.000  0.000  0.166  0.500  0.334
  0.000  0.000  0.667  0.000  0.333
  0.750  0.250  0.000  0.000  0.000
  0.000  0.000  0.166  0.500  0.334
    occupations:
  0.370  0.000  0.000  0.000  0.001
  0.000  0.996  0.000  0.001  0.000
  0.000  0.000  0.996 -0.001  0.000
  0.000  0.001 -0.001  0.370  0.000
  0.001  0.000  0.000  0.000  0.996
   spin  2
    eigenvalues: 
  0.985  0.985  0.997  0.997  0.997
    eigenvectors:
  0.750  0.250  0.000  0.000  0.000
  0.000  0.000  0.152  0.500  0.348
  0.000  0.000  0.696  0.000  0.304
  0.250  0.750  0.000  0.000  0.000
  0.000  0.000  0.152  0.500  0.348
    occupations:
  0.985  0.000  0.000  0.000  0.000
  0.000  0.997  0.000  0.000  0.000
  0.000  0.000  0.997  0.000  0.000
  0.000  0.000  0.000  0.985  0.000
  0.000  0.000  0.000  0.000  0.997
atomic mag. moment =    -1.233722
atom    8   Tr[ns(na)] (up, down, total) =   3.72839  4.96210  8.69049
   spin  1
    eigenvalues: 
  0.370  0.370  0.996  0.996  0.996
    eigenvectors:
  0.070  0.930  0.000  0.000  0.000
  0.000  0.000  0.053  0.614  0.333
  0.000  0.000  0.317  0.349  0.333
  0.930  0.070  0.000  0.000  0.000
  0.000  0.000  0.630  0.037  0.333
    occupations:
  0.370  0.000  0.000  0.000  0.001
  0.000  0.996  0.000  0.001  0.000
  0.000  0.000  0.996 -0.001  0.000
  0.000  0.001 -0.001  0.370  0.000
  0.001  0.000  0.000  0.000  0.996
   spin  2
    eigenvalues: 
  0.985  0.985  0.997  0.997  0.997
    eigenvectors:
  0.782  0.218  0.000  0.000  0.000
  0.000  0.000  0.187  0.479  0.333
  0.000  0.000  0.147  0.520  0.333
  0.218  0.782  0.000  0.000  0.000
  0.000  0.000  0.666  0.001  0.333
    occupations:
  0.985  0.000  0.000  0.000  0.000
  0.000  0.997  0.000  0.000  0.000
  0.000  0.000  0.997  0.000  0.000
  0.000  0.000  0.000  0.985  0.000
  0.000  0.000  0.000  0.000  0.997
atomic mag. moment =    -1.233714
atom    9   Tr[ns(na)] (up, down, total) =   2.81402  2.81402  5.62805
   spin  1
    eigenvalues: 
  0.938  0.938  0.938
    eigenvectors:
  0.670  0.000  0.330
  0.165  0.500  0.335
  0.165  0.500  0.335
    occupations:
  0.938  0.000  0.000
  0.000  0.938  0.000
  0.000  0.000  0.938
   spin  2
    eigenvalues: 
  0.938  0.938  0.938
    eigenvectors:
  0.670  0.000  0.330
  0.165  0.500  0.335
  0.165  0.500  0.335
    occupations:
  0.938  0.000  0.000
  0.000  0.938  0.000
  0.000  0.000  0.938
atomic mag. moment =     0.000000
atom   10   Tr[ns(na)] (up, down, total) =   2.81402  2.81403  5.62805
   spin  1
    eigenvalues: 
  0.938  0.938  0.938
    eigenvectors:
  0.383  0.283  0.333
  0.594  0.073  0.333
  0.023  0.644  0.333
    occupations:
  0.938  0.000  0.000
  0.000  0.938  0.000
  0.000  0.000  0.938
   spin  2
    eigenvalues: 
  0.938  0.938  0.938
    eigenvectors:
  0.554  0.113  0.333
  0.439  0.227  0.333
  0.007  0.660  0.333
    occupations:
  0.938  0.000  0.000
  0.000  0.938  0.000
  0.000  0.000  0.938
atomic mag. moment =    -0.000001
atom   11   Tr[ns(na)] (up, down, total) =   2.81402  2.81402  5.62805
   spin  1
    eigenvalues: 
  0.938  0.938  0.938
    eigenvectors:
  0.165  0.500  0.335
  0.165  0.500  0.335
  0.670  0.000  0.330
    occupations:
  0.938  0.000  0.000
  0.000  0.938  0.000
  0.000  0.000  0.938
   spin  2
    eigenvalues: 
  0.938  0.938  0.938
    eigenvectors:
  0.165  0.500  0.335
  0.165  0.500  0.335
  0.670  0.000  0.330
    occupations:
  0.938  0.000  0.000
  0.000  0.938  0.000
  0.000  0.000  0.938
atomic mag. moment =     0.000000
atom   12   Tr[ns(na)] (up, down, total) =   2.81402  2.81402  5.62805
   spin  1
    eigenvalues: 
  0.938  0.938  0.938
    eigenvectors:
  0.165  0.500  0.335
  0.670  0.000  0.330
  0.165  0.500  0.335
    occupations:
  0.938  0.000  0.000
  0.000  0.938  0.000
  0.000  0.000  0.938
   spin  2
    eigenvalues: 
  0.938  0.938  0.938
    eigenvectors:
  0.165  0.500  0.335
  0.670  0.000  0.330
  0.165  0.500  0.335
    occupations:
  0.938  0.000  0.000
  0.000  0.938  0.000
  0.000  0.000  0.938
atomic mag. moment =     0.000000
atom   13   Tr[ns(na)] (up, down, total) =   2.81402  2.81402  5.62805
   spin  1
    eigenvalues: 
  0.938  0.938  0.938
    eigenvectors:
  0.165  0.500  0.335
  0.165  0.500  0.335
  0.670  0.000  0.330
    occupations:
  0.938  0.000  0.000
  0.000  0.938  0.000
  0.000  0.000  0.938
   spin  2
    eigenvalues: 
  0.938  0.938  0.938
    eigenvectors:
  0.165  0.500  0.335
  0.165  0.500  0.335
  0.670  0.000  0.330
    occupations:
  0.938  0.000  0.000
  0.000  0.938  0.000
  0.000  0.000  0.938
atomic mag. moment =     0.000000
atom   14   Tr[ns(na)] (up, down, total) =   2.81402  2.81402  5.62805
   spin  1
    eigenvalues: 
  0.938  0.938  0.938
    eigenvectors:
  0.165  0.500  0.335
  0.670  0.000  0.330
  0.165  0.500  0.335
    occupations:
  0.938  0.000  0.000
  0.000  0.938  0.000
  0.000  0.000  0.938
   spin  2
    eigenvalues: 
  0.938  0.938  0.938
    eigenvectors:
  0.165  0.500  0.335
  0.670  0.000  0.330
  0.165  0.500  0.335
    occupations:
  0.938  0.000  0.000
  0.000  0.938  0.000
  0.000  0.000  0.938
atomic mag. moment =     0.000000
atom   15   Tr[ns(na)] (up, down, total) =   2.81402  2.81403  5.62805
   spin  1
    eigenvalues: 
  0.938  0.938  0.938
    eigenvectors:
  0.383  0.283  0.333
  0.594  0.073  0.333
  0.023  0.644  0.333
    occupations:
  0.938  0.000  0.000
  0.000  0.938  0.000
  0.000  0.000  0.938
   spin  2
    eigenvalues: 
  0.938  0.938  0.938
    eigenvectors:
  0.554  0.113  0.333
  0.439  0.227  0.333
  0.007  0.660  0.333
    occupations:
  0.938  0.000  0.000
  0.000  0.938  0.000
  0.000  0.000  0.938
atomic mag. moment =    -0.000001
atom   16   Tr[ns(na)] (up, down, total) =   2.81402  2.81402  5.62805
   spin  1
    eigenvalues: 
  0.938  0.938  0.938
    eigenvectors:
  0.670  0.000  0.330
  0.165  0.500  0.335
  0.165  0.500  0.335
    occupations:
  0.938  0.000  0.000
  0.000  0.938  0.000
  0.000  0.000  0.938
   spin  2
    eigenvalues: 
  0.938  0.938  0.938
    eigenvectors:
  0.670  0.000  0.330
  0.165  0.500  0.335
  0.165  0.500  0.335
    occupations:
  0.938  0.000  0.000
  0.000  0.938  0.000
  0.000  0.000  0.938
atomic mag. moment =     0.000000
N of occupied +U levels = 114.5482751
 --- exit write_ns ---
 Atomic wfc used for LDA+U Projector are NOT orthogonalized
     Starting wfc from file

     total cpu time spent up to now is       15.4 secs

     per-process dynamical memory:    86.2 Mb

     Self-consistent Calculation

     iteration #  1     ecut=    30.00 Ry     beta=0.30
     Davidson diagonalization with overlap
     c_bands:  1 eigenvalues not converged
     ethr =  8.16E-12,  avg # of iterations = 16.5
 --- enter write_ns ---
 LDA+U parameters:
U( 1)     =  0.00000000
alpha( 1) =  0.07000000
U( 2)     =  0.00000000
alpha( 2) =  0.00000000
U( 3)     =  0.00000000
alpha( 3) =  0.00000000
U( 4)     =  0.00000000
alpha( 4) =  0.00000000
atom    1   Tr[ns(na)] (up, down, total) =   4.96113  3.71546  8.67659
   spin  1
    eigenvalues: 
  0.984  0.984  0.997  0.997  0.997
    eigenvectors:
  0.438  0.562  0.000  0.000  0.000
  0.000  0.000  0.163  0.503  0.333
  0.000  0.000  0.170  0.496  0.333
  0.562  0.438  0.000  0.000  0.000
  0.000  0.000  0.667  0.000  0.333
    occupations:
  0.984  0.000  0.000  0.000  0.000
  0.000  0.997  0.000  0.000  0.000
  0.000  0.000  0.997  0.000  0.000
  0.000  0.000  0.000  0.984  0.000
  0.000  0.000  0.000  0.000  0.997
   spin  2
    eigenvalues: 
  0.364  0.364  0.996  0.996  0.996
    eigenvectors:
  0.828  0.172  0.000  0.000  0.000
  0.000  0.000  0.102  0.565  0.333
  0.000  0.000  0.241  0.426  0.333
  0.172  0.828  0.000  0.000  0.000
  0.000  0.000  0.657  0.010  0.333
    occupations:
  0.364  0.000  0.000  0.000  0.001
  0.000  0.996  0.000  0.001  0.000
  0.000  0.000  0.996 -0.001  0.000
  0.000  0.001 -0.001  0.364  0.000
  0.001  0.000  0.000  0.000  0.996
atomic mag. moment =     1.245670
atom    2   Tr[ns(na)] (up, down, total) =   4.96211  3.72873  8.69085
   spin  1
    eigenvalues: 
  0.985  0.985  0.997  0.997  0.997
    eigenvectors:
  0.250  0.750  0.000  0.000  0.000
  0.000  0.000  0.500  0.215  0.285
  0.000  0.000  0.000  0.569  0.431
  0.750  0.250  0.000  0.000  0.000
  0.000  0.000  0.500  0.215  0.285
    occupations:
  0.985  0.000  0.000  0.000  0.000
  0.000  0.997  0.000  0.000  0.000
  0.000  0.000  0.997  0.000  0.000
  0.000  0.000  0.000  0.985  0.000
  0.000  0.000  0.000  0.000  0.997
   spin  2
    eigenvalues: 
  0.371  0.371  0.996  0.996  0.996
    eigenvectors:
  0.750  0.250  0.000  0.000  0.000
  0.000  0.000  0.500  0.442  0.058
  0.000  0.000  0.000  0.116  0.884
  0.250  0.750  0.000  0.000  0.000
  0.000  0.000  0.500  0.442  0.058
    occupations:
  0.371  0.000  0.000  0.000  0.001
  0.000  0.996  0.000  0.001  0.000
  0.000  0.000  0.996 -0.001  0.000
  0.000  0.001 -0.001  0.371  0.000
  0.001  0.000  0.000  0.000  0.996
atomic mag. moment =     1.233384
atom    3   Tr[ns(na)] (up, down, total) =   4.96211  3.72873  8.69085
   spin  1
    eigenvalues: 
  0.985  0.985  0.997  0.997  0.997
    eigenvectors:
  0.250  0.750  0.000  0.000  0.000
  0.000  0.000  0.000  0.569  0.431
  0.000  0.000  0.500  0.215  0.285
  0.750  0.250  0.000  0.000  0.000
  0.000  0.000  0.500  0.215  0.285
    occupations:
  0.985  0.000  0.000  0.000  0.000
  0.000  0.997  0.000  0.000  0.000
  0.000  0.000  0.997  0.000  0.000
  0.000  0.000  0.000  0.985  0.000
  0.000  0.000  0.000  0.000  0.997
   spin  2
    eigenvalues: 
  0.371  0.371  0.996  0.996  0.996
    eigenvectors:
  0.750  0.250  0.000  0.000  0.000
  0.000  0.000  0.000  0.116  0.884
  0.000  0.000  0.500  0.442  0.058
  0.250  0.750  0.000  0.000  0.000
  0.000  0.000  0.500  0.442  0.058
    occupations:
  0.371  0.000  0.000  0.000  0.001
  0.000  0.996  0.000  0.001  0.000
  0.000  0.000  0.996 -0.001  0.000
  0.000  0.001 -0.001  0.371  0.000
  0.001  0.000  0.000  0.000  0.996
atomic mag. moment =     1.233384
atom    4   Tr[ns(na)] (up, down, total) =   4.96211  3.72873  8.69085
   spin  1
    eigenvalues: 
  0.985  0.985  0.997  0.997  0.997
    eigenvectors:
  1.000  0.000  0.000  0.000  0.000
  0.000  0.000  0.500  0.215  0.285
  0.000  0.000  0.500  0.215  0.285
  0.000  1.000  0.000  0.000  0.000
  0.000  0.000  0.000  0.569  0.431
    occupations:
  0.985  0.000  0.000  0.000  0.000
  0.000  0.997  0.000  0.000  0.000
  0.000  0.000  0.997  0.000  0.000
  0.000  0.000  0.000  0.985  0.000
  0.000  0.000  0.000  0.000  0.997
   spin  2
    eigenvalues: 
  0.371  0.371  0.996  0.996  0.996
    eigenvectors:
  0.000  1.000  0.000  0.000  0.000
  0.000  0.000  0.500  0.442  0.058
  0.000  0.000  0.500  0.442  0.058
  1.000  0.000  0.000  0.000  0.000
  0.000  0.000  0.000  0.116  0.884
    occupations:
  0.371  0.000  0.000  0.000  0.001
  0.000  0.996  0.000  0.001  0.000
  0.000  0.000  0.996 -0.001  0.000
  0.000  0.001 -0.001  0.371  0.000
  0.001  0.000  0.000  0.000  0.996
atomic mag. moment =     1.233384
atom    5   Tr[ns(na)] (up, down, total) =   3.72842  4.96215  8.69057
   spin  1
    eigenvalues: 
  0.370  0.371  0.996  0.996  0.996
    eigenvectors:
  0.000  1.000  0.000  0.000  0.000
  0.000  0.000  0.500  0.170  0.330
  0.000  0.000  0.500  0.170  0.330
  1.000  0.000  0.000  0.000  0.000
  0.000  0.000  0.000  0.661  0.339
    occupations:
  0.371  0.000  0.000  0.000  0.001
  0.000  0.996  0.000  0.001  0.000
  0.000  0.000  0.996 -0.001  0.000
  0.000  0.001 -0.001  0.370  0.000
  0.001  0.000  0.000  0.000  0.996
   spin  2
    eigenvalues: 
  0.985  0.985  0.997  0.997  0.998
    eigenvectors:
  0.000  1.000  0.000  0.000  0.000
  0.000  0.000  0.499  0.500  0.001
  0.000  0.000  0.499  0.500  0.001
  1.000  0.000  0.000  0.000  0.000
  0.000  0.000  0.002  0.000  0.998
    occupations:
  0.985  0.000  0.000  0.000  0.000
  0.000  0.997  0.000  0.000  0.000
  0.000  0.000  0.997  0.000  0.000
  0.000  0.000  0.000  0.985  0.000
  0.000  0.000  0.000  0.000  0.998
atomic mag. moment =    -1.233722
atom    6   Tr[ns(na)] (up, down, total) =   3.72842  4.96215  8.69057
   spin  1
    eigenvalues: 
  0.370  0.371  0.996  0.996  0.996
    eigenvectors:
  0.750  0.250  0.000  0.000  0.000
  0.000  0.000  0.000  0.661  0.339
  0.000  0.000  0.500  0.170  0.330
  0.250  0.750  0.000  0.000  0.000
  0.000  0.000  0.500  0.170  0.330
    occupations:
  0.370  0.000  0.000  0.000  0.001
  0.000  0.996  0.000  0.001  0.000
  0.000  0.000  0.996 -0.001  0.000
  0.000  0.001 -0.001  0.371  0.000
  0.001  0.000  0.000  0.000  0.996
   spin  2
    eigenvalues: 
  0.985  0.985  0.997  0.997  0.998
    eigenvectors:
  0.750  0.250  0.000  0.000  0.000
  0.000  0.000  0.002  0.000  0.998
  0.000  0.000  0.499  0.500  0.001
  0.250  0.750  0.000  0.000  0.000
  0.000  0.000  0.499  0.500  0.001
    occupations:
  0.985  0.000  0.000  0.000  0.000
  0.000  0.998  0.000  0.000  0.000
  0.000  0.000  0.997  0.000  0.000
  0.000  0.000  0.000  0.985  0.000
  0.000  0.000  0.000  0.000  0.997
atomic mag. moment =    -1.233722
atom    7   Tr[ns(na)] (up, down, total) =   3.72842  4.96215  8.69057
   spin  1
    eigenvalues: 
  0.370  0.371  0.996  0.996  0.996
    eigenvectors:
  0.750  0.250  0.000  0.000  0.000
  0.000  0.000  0.500  0.170  0.330
  0.000  0.000  0.000  0.661  0.339
  0.250  0.750  0.000  0.000  0.000
  0.000  0.000  0.500  0.170  0.330
    occupations:
  0.370  0.000  0.000  0.000  0.001
  0.000  0.996  0.000  0.001  0.000
  0.000  0.000  0.996 -0.001  0.000
  0.000  0.001 -0.001  0.371  0.000
  0.001  0.000  0.000  0.000  0.996
   spin  2
    eigenvalues: 
  0.985  0.985  0.997  0.997  0.998
    eigenvectors:
  0.750  0.250  0.000  0.000  0.000
  0.000  0.000  0.499  0.500  0.001
  0.000  0.000  0.002  0.000  0.998
  0.250  0.750  0.000  0.000  0.000
  0.000  0.000  0.499  0.500  0.001
    occupations:
  0.985  0.000  0.000  0.000  0.000
  0.000  0.997  0.000  0.000  0.000
  0.000  0.000  0.998  0.000  0.000
  0.000  0.000  0.000  0.985  0.000
  0.000  0.000  0.000  0.000  0.997
atomic mag. moment =    -1.233722
atom    8   Tr[ns(na)] (up, down, total) =   3.72933  4.96305  8.69238
   spin  1
    eigenvalues: 
  0.371  0.371  0.996  0.996  0.996
    eigenvectors:
  0.023  0.977  0.000  0.000  0.000
  0.000  0.000  0.099  0.568  0.333
  0.000  0.000  0.245  0.421  0.333
  0.977  0.023  0.000  0.000  0.000
  0.000  0.000  0.656  0.011  0.333
    occupations:
  0.371  0.000  0.000  0.000  0.001
  0.000  0.996  0.000  0.001  0.000
  0.000  0.000  0.996 -0.001  0.000
  0.000  0.001 -0.001  0.371  0.000
  0.001  0.000  0.000  0.000  0.996
   spin  2
    eigenvalues: 
  0.985  0.985  0.997  0.997  0.997
    eigenvectors:
  0.734  0.266  0.000  0.000  0.000
  0.000  0.000  0.120  0.547  0.333
  0.000  0.000  0.219  0.448  0.333
  0.266  0.734  0.000  0.000  0.000
  0.000  0.000  0.662  0.005  0.333
    occupations:
  0.985  0.000  0.000  0.000  0.000
  0.000  0.997  0.000  0.000  0.000
  0.000  0.000  0.997  0.000  0.000
  0.000  0.000  0.000  0.985  0.000
  0.000  0.000  0.000  0.000  0.997
atomic mag. moment =    -1.233722
atom    9   Tr[ns(na)] (up, down, total) =   2.81404  2.81502  5.62905
   spin  1
    eigenvalues: 
  0.938  0.938  0.938
    eigenvectors:
  0.000  0.627  0.373
  0.500  0.186  0.314
  0.500  0.186  0.314
    occupations:
  0.938  0.000  0.000
  0.000  0.938  0.000
  0.000  0.000  0.938
   spin  2
    eigenvalues: 
  0.938  0.938  0.939
    eigenvectors:
  0.000  0.006  0.994
  0.500  0.497  0.003
  0.500  0.497  0.003
    occupations:
  0.939  0.000  0.000
  0.000  0.938  0.000
  0.000  0.000  0.938
atomic mag. moment =    -0.000981
atom   10   Tr[ns(na)] (up, down, total) =   2.81402  2.81404  5.62806
   spin  1
    eigenvalues: 
  0.938  0.938  0.938
    eigenvectors:
  0.419  0.248  0.333
  0.570  0.097  0.333
  0.012  0.655  0.333
    occupations:
  0.938  0.000  0.000
  0.000  0.938  0.000
  0.000  0.000  0.938
   spin  2
    eigenvalues: 
  0.938  0.938  0.938
    eigenvectors:
  0.421  0.245  0.333
  0.568  0.099  0.333
  0.011  0.656  0.333
    occupations:
  0.938  0.000  0.000
  0.000  0.938  0.000
  0.000  0.000  0.938
atomic mag. moment =    -0.000015
atom   11   Tr[ns(na)] (up, down, total) =   2.81404  2.81502  5.62905
   spin  1
    eigenvalues: 
  0.938  0.938  0.938
    eigenvectors:
  0.500  0.186  0.314
  0.500  0.186  0.314
  0.000  0.627  0.373
    occupations:
  0.938  0.000  0.000
  0.000  0.938  0.000
  0.000  0.000  0.938
   spin  2
    eigenvalues: 
  0.938  0.938  0.939
    eigenvectors:
  0.500  0.497  0.003
  0.500  0.497  0.003
  0.000  0.006  0.994
    occupations:
  0.938  0.000  0.000
  0.000  0.938  0.000
  0.000  0.000  0.939
atomic mag. moment =    -0.000981
atom   12   Tr[ns(na)] (up, down, total) =   2.81404  2.81502  5.62905
   spin  1
    eigenvalues: 
  0.938  0.938  0.938
    eigenvectors:
  0.500  0.186  0.314
  0.000  0.627  0.373
  0.500  0.186  0.314
    occupations:
  0.938  0.000  0.000
  0.000  0.938  0.000
  0.000  0.000  0.938
   spin  2
    eigenvalues: 
  0.938  0.938  0.939
    eigenvectors:
  0.500  0.497  0.003
  0.000  0.006  0.994
  0.500  0.497  0.003
    occupations:
  0.938  0.000  0.000
  0.000  0.939  0.000
  0.000  0.000  0.938
atomic mag. moment =    -0.000981
atom   13   Tr[ns(na)] (up, down, total) =   2.81404  2.81502  5.62905
   spin  1
    eigenvalues: 
  0.938  0.938  0.938
    eigenvectors:
  0.500  0.186  0.314
  0.500  0.186  0.314
  0.000  0.627  0.373
    occupations:
  0.938  0.000  0.000
  0.000  0.938  0.000
  0.000  0.000  0.938
   spin  2
    eigenvalues: 
  0.938  0.938  0.939
    eigenvectors:
  0.500  0.497  0.003
  0.500  0.497  0.003
  0.000  0.006  0.994
    occupations:
  0.938  0.000  0.000
  0.000  0.938  0.000
  0.000  0.000  0.939
atomic mag. moment =    -0.000981
atom   14   Tr[ns(na)] (up, down, total) =   2.81404  2.81502  5.62905
   spin  1
    eigenvalues: 
  0.938  0.938  0.938
    eigenvectors:
  0.500  0.186  0.314
  0.000  0.627  0.373
  0.500  0.186  0.314
    occupations:
  0.938  0.000  0.000
  0.000  0.938  0.000
  0.000  0.000  0.938
   spin  2
    eigenvalues: 
  0.938  0.938  0.939
    eigenvectors:
  0.500  0.497  0.003
  0.000  0.006  0.994
  0.500  0.497  0.003
    occupations:
  0.938  0.000  0.000
  0.000  0.939  0.000
  0.000  0.000  0.938
atomic mag. moment =    -0.000981
atom   15   Tr[ns(na)] (up, down, total) =   2.81402  2.81404  5.62806
   spin  1
    eigenvalues: 
  0.938  0.938  0.938
    eigenvectors:
  0.421  0.246  0.333
  0.568  0.099  0.333
  0.011  0.656  0.333
    occupations:
  0.938  0.000  0.000
  0.000  0.938  0.000
  0.000  0.000  0.938
   spin  2
    eigenvalues: 
  0.938  0.938  0.938
    eigenvectors:
  0.389  0.277  0.333
  0.590  0.077  0.333
  0.021  0.646  0.333
    occupations:
  0.938  0.000  0.000
  0.000  0.938  0.000
  0.000  0.000  0.938
atomic mag. moment =    -0.000015
atom   16   Tr[ns(na)] (up, down, total) =   2.81404  2.81502  5.62905
   spin  1
    eigenvalues: 
  0.938  0.938  0.938
    eigenvectors:
  0.000  0.627  0.373
  0.500  0.186  0.314
  0.500  0.186  0.314
    occupations:
  0.938  0.000  0.000
  0.000  0.938  0.000
  0.000  0.000  0.938
   spin  2
    eigenvalues: 
  0.938  0.938  0.939
    eigenvectors:
  0.000  0.006  0.994
  0.500  0.497  0.003
  0.500  0.497  0.003
    occupations:
  0.939  0.000  0.000
  0.000  0.938  0.000
  0.000  0.000  0.938
atomic mag. moment =    -0.000981
N of occupied +U levels = 114.5436633
 --- exit write_ns ---

     total cpu time spent up to now is       48.7 secs

     total energy              =    -941.95147017 Ry
     Harris-Foulkes estimate   =    -941.95152336 Ry
     estimated scf accuracy    <       0.00012318 Ry

     total magnetization       =     0.00 Bohr mag/cell
     absolute magnetization    =    12.67 Bohr mag/cell

     iteration #  2     ecut=    30.00 Ry     beta=0.30
     Davidson diagonalization with overlap
     ethr =  9.62E-08,  avg # of iterations =  2.0

     total cpu time spent up to now is       75.4 secs

     total energy              =    -941.95149376 Ry
     Harris-Foulkes estimate   =    -941.95151808 Ry
     estimated scf accuracy    <       0.00008504 Ry

     total magnetization       =     0.00 Bohr mag/cell
     absolute magnetization    =    12.66 Bohr mag/cell

     iteration #  3     ecut=    30.00 Ry     beta=0.30
     Davidson diagonalization with overlap
     ethr =  6.64E-08,  avg # of iterations =  1.9

     total cpu time spent up to now is      101.9 secs

     total energy              =    -941.95150601 Ry
     Harris-Foulkes estimate   =    -941.95150609 Ry
     estimated scf accuracy    <       0.00000195 Ry

     total magnetization       =     0.00 Bohr mag/cell
     absolute magnetization    =    12.66 Bohr mag/cell

     iteration #  4     ecut=    30.00 Ry     beta=0.30
     Davidson diagonalization with overlap
     ethr =  1.52E-09,  avg # of iterations =  2.0

     total cpu time spent up to now is      128.4 secs

     total energy              =    -941.95150642 Ry
     Harris-Foulkes estimate   =    -941.95150618 Ry
     estimated scf accuracy    <       0.00000064 Ry

     total magnetization       =     0.00 Bohr mag/cell
     absolute magnetization    =    12.66 Bohr mag/cell

     iteration #  5     ecut=    30.00 Ry     beta=0.30
     Davidson diagonalization with overlap
     ethr =  5.03E-10,  avg # of iterations =  1.5

     total cpu time spent up to now is      154.7 secs

     total energy              =    -941.95150651 Ry
     Harris-Foulkes estimate   =    -941.95150648 Ry
     estimated scf accuracy    <       0.00000016 Ry

     total magnetization       =     0.00 Bohr mag/cell
     absolute magnetization    =    12.66 Bohr mag/cell

     iteration #  6     ecut=    30.00 Ry     beta=0.30
     Davidson diagonalization with overlap
     ethr =  1.28E-10,  avg # of iterations =  1.5

     total cpu time spent up to now is      181.1 secs

     total energy              =    -941.95150654 Ry
     Harris-Foulkes estimate   =    -941.95150653 Ry
     estimated scf accuracy    <       0.00000002 Ry

     total magnetization       =     0.00 Bohr mag/cell
     absolute magnetization    =    12.66 Bohr mag/cell

     iteration #  7     ecut=    30.00 Ry     beta=0.30
     Davidson diagonalization with overlap
     ethr =  1.52E-11,  avg # of iterations =  1.8

     total cpu time spent up to now is      207.1 secs

     End of self-consistent calculation
 --- enter write_ns ---
 LDA+U parameters:
U( 1)     =  0.00000000
alpha( 1) =  0.07000000
U( 2)     =  0.00000000
alpha( 2) =  0.00000000
U( 3)     =  0.00000000
alpha( 3) =  0.00000000
U( 4)     =  0.00000000
alpha( 4) =  0.00000000
atom    1   Tr[ns(na)] (up, down, total) =   4.96200  3.72112  8.68312
   spin  1
    eigenvalues: 
  0.985  0.985  0.997  0.997  0.997
    eigenvectors:
  0.237  0.763  0.000  0.000  0.000
  0.000  0.000  0.136  0.530  0.333
  0.000  0.000  0.199  0.468  0.333
  0.763  0.237  0.000  0.000  0.000
  0.000  0.000  0.665  0.002  0.333
    occupations:
  0.985  0.000  0.000  0.000  0.000
  0.000  0.997  0.000  0.000  0.000
  0.000  0.000  0.997  0.000  0.000
  0.000  0.000  0.000  0.985  0.000
  0.000  0.000  0.000  0.000  0.997
   spin  2
    eigenvalues: 
  0.367  0.367  0.996  0.996  0.996
    eigenvectors:
  0.273  0.727  0.000  0.000  0.000
  0.000  0.000  0.087  0.580  0.333
  0.000  0.000  0.262  0.405  0.333
  0.727  0.273  0.000  0.000  0.000
  0.000  0.000  0.651  0.016  0.333
    occupations:
  0.367  0.000  0.000  0.000  0.001
  0.000  0.996  0.000  0.001  0.000
  0.000  0.000  0.996 -0.001  0.000
  0.000  0.001 -0.001  0.367  0.000
  0.001  0.000  0.000  0.000  0.996
atomic mag. moment =     1.240876
atom    2   Tr[ns(na)] (up, down, total) =   4.96210  3.72847  8.69057
   spin  1
    eigenvalues: 
  0.985  0.985  0.997  0.997  0.997
    eigenvectors:
  0.750  0.250  0.000  0.000  0.000
  0.000  0.000  0.456  0.500  0.044
  0.000  0.000  0.087  0.000  0.913
  0.250  0.750  0.000  0.000  0.000
  0.000  0.000  0.456  0.500  0.044
    occupations:
  0.985  0.000  0.000  0.000  0.000
  0.000  0.997  0.000  0.000  0.000
  0.000  0.000  0.997  0.000  0.000
  0.000  0.000  0.000  0.985  0.000
  0.000  0.000  0.000  0.000  0.997
   spin  2
    eigenvalues: 
  0.370  0.371  0.996  0.996  0.996
    eigenvectors:
  0.750  0.250  0.000  0.000  0.000
  0.000  0.000  0.500  0.314  0.186
  0.000  0.000  0.000  0.373  0.627
  0.250  0.750  0.000  0.000  0.000
  0.000  0.000  0.500  0.314  0.186
    occupations:
  0.370  0.000  0.000  0.000  0.001
  0.000  0.996  0.000  0.001  0.000
  0.000  0.000  0.996 -0.001  0.000
  0.000  0.001 -0.001  0.371  0.000
  0.001  0.000  0.000  0.000  0.996
atomic mag. moment =     1.233633
atom    3   Tr[ns(na)] (up, down, total) =   4.96210  3.72847  8.69057
   spin  1
    eigenvalues: 
  0.985  0.985  0.997  0.997  0.997
    eigenvectors:
  0.750  0.250  0.000  0.000  0.000
  0.000  0.000  0.087  0.000  0.913
  0.000  0.000  0.456  0.500  0.044
  0.250  0.750  0.000  0.000  0.000
  0.000  0.000  0.456  0.500  0.044
    occupations:
  0.985  0.000  0.000  0.000  0.000
  0.000  0.997  0.000  0.000  0.000
  0.000  0.000  0.997  0.000  0.000
  0.000  0.000  0.000  0.985  0.000
  0.000  0.000  0.000  0.000  0.997
   spin  2
    eigenvalues: 
  0.370  0.371  0.996  0.996  0.996
    eigenvectors:
  0.750  0.250  0.000  0.000  0.000
  0.000  0.000  0.000  0.373  0.627
  0.000  0.000  0.500  0.314  0.186
  0.250  0.750  0.000  0.000  0.000
  0.000  0.000  0.500  0.314  0.186
    occupations:
  0.370  0.000  0.000  0.000  0.001
  0.000  0.996  0.000  0.001  0.000
  0.000  0.000  0.996 -0.001  0.000
  0.000  0.001 -0.001  0.371  0.000
  0.001  0.000  0.000  0.000  0.996
atomic mag. moment =     1.233633
atom    4   Tr[ns(na)] (up, down, total) =   4.96210  3.72847  8.69057
   spin  1
    eigenvalues: 
  0.985  0.985  0.997  0.997  0.997
    eigenvectors:
  0.000  1.000  0.000  0.000  0.000
  0.000  0.000  0.456  0.500  0.044
  0.000  0.000  0.456  0.500  0.044
  1.000  0.000  0.000  0.000  0.000
  0.000  0.000  0.087  0.000  0.913
    occupations:
  0.985  0.000  0.000  0.000  0.000
  0.000  0.997  0.000  0.000  0.000
  0.000  0.000  0.997  0.000  0.000
  0.000  0.000  0.000  0.985  0.000
  0.000  0.000  0.000  0.000  0.997
   spin  2
    eigenvalues: 
  0.370  0.371  0.996  0.996  0.996
    eigenvectors:
  0.000  1.000  0.000  0.000  0.000
  0.000  0.000  0.500  0.314  0.186
  0.000  0.000  0.500  0.314  0.186
  1.000  0.000  0.000  0.000  0.000
  0.000  0.000  0.000  0.373  0.627
    occupations:
  0.371  0.000  0.000  0.000  0.001
  0.000  0.996  0.000  0.001  0.000
  0.000  0.000  0.996 -0.001  0.000
  0.000  0.001 -0.001  0.370  0.000
  0.001  0.000  0.000  0.000  0.996
atomic mag. moment =     1.233633
atom    5   Tr[ns(na)] (up, down, total) =   3.72844  4.96212  8.69056
   spin  1
    eigenvalues: 
  0.371  0.371  0.996  0.996  0.996
    eigenvectors:
  1.000  0.000  0.000  0.000  0.000
  0.000  0.000  0.500  0.178  0.322
  0.000  0.000  0.500  0.178  0.322
  0.000  1.000  0.000  0.000  0.000
  0.000  0.000  0.000  0.643  0.357
    occupations:
  0.371  0.000  0.000  0.000  0.001
  0.000  0.996  0.000  0.001  0.000
  0.000  0.000  0.996 -0.001  0.000
  0.000  0.001 -0.001  0.371  0.000
  0.001  0.000  0.000  0.000  0.996
   spin  2
    eigenvalues: 
  0.985  0.985  0.997  0.997  0.997
    eigenvectors:
  0.000  1.000  0.000  0.000  0.000
  0.000  0.000  0.500  0.495  0.005
  0.000  0.000  0.500  0.495  0.005
  1.000  0.000  0.000  0.000  0.000
  0.000  0.000  0.000  0.011  0.989
    occupations:
  0.985  0.000  0.000  0.000  0.000
  0.000  0.997  0.000  0.000  0.000
  0.000  0.000  0.997  0.000  0.000
  0.000  0.000  0.000  0.985  0.000
  0.000  0.000  0.000  0.000  0.997
atomic mag. moment =    -1.233672
atom    6   Tr[ns(na)] (up, down, total) =   3.72844  4.96212  8.69056
   spin  1
    eigenvalues: 
  0.371  0.371  0.996  0.996  0.996
    eigenvectors:
  0.250  0.750  0.000  0.000  0.000
  0.000  0.000  0.000  0.643  0.357
  0.000  0.000  0.500  0.178  0.322
  0.750  0.250  0.000  0.000  0.000
  0.000  0.000  0.500  0.178  0.322
    occupations:
  0.371  0.000  0.000  0.000  0.001
  0.000  0.996  0.000  0.001  0.000
  0.000  0.000  0.996 -0.001  0.000
  0.000  0.001 -0.001  0.371  0.000
  0.001  0.000  0.000  0.000  0.996
   spin  2
    eigenvalues: 
  0.985  0.985  0.997  0.997  0.997
    eigenvectors:
  0.750  0.250  0.000  0.000  0.000
  0.000  0.000  0.000  0.011  0.989
  0.000  0.000  0.500  0.495  0.005
  0.250  0.750  0.000  0.000  0.000
  0.000  0.000  0.500  0.495  0.005
    occupations:
  0.985  0.000  0.000  0.000  0.000
  0.000  0.997  0.000  0.000  0.000
  0.000  0.000  0.997  0.000  0.000
  0.000  0.000  0.000  0.985  0.000
  0.000  0.000  0.000  0.000  0.997
atomic mag. moment =    -1.233672
atom    7   Tr[ns(na)] (up, down, total) =   3.72844  4.96212  8.69056
   spin  1
    eigenvalues: 
  0.371  0.371  0.996  0.996  0.996
    eigenvectors:
  0.250  0.750  0.000  0.000  0.000
  0.000  0.000  0.500  0.178  0.322
  0.000  0.000  0.000  0.643  0.357
  0.750  0.250  0.000  0.000  0.000
  0.000  0.000  0.500  0.178  0.322
    occupations:
  0.371  0.000  0.000  0.000  0.001
  0.000  0.996  0.000  0.001  0.000
  0.000  0.000  0.996 -0.001  0.000
  0.000  0.001 -0.001  0.371  0.000
  0.001  0.000  0.000  0.000  0.996
   spin  2
    eigenvalues: 
  0.985  0.985  0.997  0.997  0.997
    eigenvectors:
  0.750  0.250  0.000  0.000  0.000
  0.000  0.000  0.500  0.495  0.005
  0.000  0.000  0.000  0.011  0.989
  0.250  0.750  0.000  0.000  0.000
  0.000  0.000  0.500  0.495  0.005
    occupations:
  0.985  0.000  0.000  0.000  0.000
  0.000  0.997  0.000  0.000  0.000
  0.000  0.000  0.997  0.000  0.000
  0.000  0.000  0.000  0.985  0.000
  0.000  0.000  0.000  0.000  0.997
atomic mag. moment =    -1.233672
atom    8   Tr[ns(na)] (up, down, total) =   3.72758  4.96255  8.69013
   spin  1
    eigenvalues: 
  0.370  0.370  0.996  0.996  0.996
    eigenvectors:
  0.128  0.872  0.000  0.000  0.000
  0.000  0.000  0.086  0.580  0.333
  0.000  0.000  0.263  0.404  0.333
  0.872  0.128  0.000  0.000  0.000
  0.000  0.000  0.651  0.016  0.333
    occupations:
  0.370  0.000  0.000  0.000  0.001
  0.000  0.996  0.000  0.001  0.000
  0.000  0.000  0.996 -0.001  0.000
  0.000  0.001 -0.001  0.370  0.000
  0.001  0.000  0.000  0.000  0.996
   spin  2
    eigenvalues: 
  0.985  0.985  0.997  0.997  0.997
    eigenvectors:
  0.643  0.357  0.000  0.000  0.000
  0.000  0.000  0.146  0.521  0.333
  0.000  0.000  0.188  0.478  0.333
  0.357  0.643  0.000  0.000  0.000
  0.000  0.000  0.666  0.001  0.333
    occupations:
  0.985  0.000  0.000  0.000  0.000
  0.000  0.997  0.000  0.000  0.000
  0.000  0.000  0.997  0.000  0.000
  0.000  0.000  0.000  0.985  0.000
  0.000  0.000  0.000  0.000  0.997
atomic mag. moment =    -1.234970
atom    9   Tr[ns(na)] (up, down, total) =   2.81397  2.81454  5.62852
   spin  1
    eigenvalues: 
  0.938  0.938  0.938
    eigenvectors:
  0.000  0.525  0.475
  0.500  0.237  0.263
  0.500  0.237  0.263
    occupations:
  0.938  0.000  0.000
  0.000  0.938  0.000
  0.000  0.000  0.938
   spin  2
    eigenvalues: 
  0.938  0.938  0.939
    eigenvectors:
  0.000  0.018  0.982
  0.500  0.491  0.009
  0.500  0.491  0.009
    occupations:
  0.939  0.000  0.000
  0.000  0.938  0.000
  0.000  0.000  0.938
atomic mag. moment =    -0.000571
atom   10   Tr[ns(na)] (up, down, total) =   2.81402  2.81403  5.62804
   spin  1
    eigenvalues: 
  0.938  0.938  0.938
    eigenvectors:
  0.422  0.244  0.333
  0.567  0.100  0.333
  0.011  0.656  0.333
    occupations:
  0.938  0.000  0.000
  0.000  0.938  0.000
  0.000  0.000  0.938
   spin  2
    eigenvalues: 
  0.938  0.938  0.938
    eigenvectors:
  0.412  0.255  0.333
  0.575  0.092  0.333
  0.014  0.653  0.333
    occupations:
  0.938  0.000  0.000
  0.000  0.938  0.000
  0.000  0.000  0.938
atomic mag. moment =    -0.000009
atom   11   Tr[ns(na)] (up, down, total) =   2.81397  2.81454  5.62852
   spin  1
    eigenvalues: 
  0.938  0.938  0.938
    eigenvectors:
  0.500  0.237  0.263
  0.500  0.237  0.263
  0.000  0.525  0.475
    occupations:
  0.938  0.000  0.000
  0.000  0.938  0.000
  0.000  0.000  0.938
   spin  2
    eigenvalues: 
  0.938  0.938  0.939
    eigenvectors:
  0.500  0.491  0.009
  0.500  0.491  0.009
  0.000  0.018  0.982
    occupations:
  0.938  0.000  0.000
  0.000  0.938  0.000
  0.000  0.000  0.939
atomic mag. moment =    -0.000571
atom   12   Tr[ns(na)] (up, down, total) =   2.81397  2.81454  5.62852
   spin  1
    eigenvalues: 
  0.938  0.938  0.938
    eigenvectors:
  0.500  0.237  0.263
  0.000  0.525  0.475
  0.500  0.237  0.263
    occupations:
  0.938  0.000  0.000
  0.000  0.938  0.000
  0.000  0.000  0.938
   spin  2
    eigenvalues: 
  0.938  0.938  0.939
    eigenvectors:
  0.500  0.491  0.009
  0.000  0.018  0.982
  0.500  0.491  0.009
    occupations:
  0.938  0.000  0.000
  0.000  0.939  0.000
  0.000  0.000  0.938
atomic mag. moment =    -0.000571
atom   13   Tr[ns(na)] (up, down, total) =   2.81397  2.81454  5.62852
   spin  1
    eigenvalues: 
  0.938  0.938  0.938
    eigenvectors:
  0.500  0.237  0.263
  0.500  0.237  0.263
  0.000  0.525  0.475
    occupations:
  0.938  0.000  0.000
  0.000  0.938  0.000
  0.000  0.000  0.938
   spin  2
    eigenvalues: 
  0.938  0.938  0.939
    eigenvectors:
  0.500  0.491  0.009
  0.500  0.491  0.009
  0.000  0.018  0.982
    occupations:
  0.938  0.000  0.000
  0.000  0.938  0.000
  0.000  0.000  0.939
atomic mag. moment =    -0.000571
atom   14   Tr[ns(na)] (up, down, total) =   2.81397  2.81454  5.62852
   spin  1
    eigenvalues: 
  0.938  0.938  0.938
    eigenvectors:
  0.500  0.237  0.263
  0.000  0.525  0.475
  0.500  0.237  0.263
    occupations:
  0.938  0.000  0.000
  0.000  0.938  0.000
  0.000  0.000  0.938
   spin  2
    eigenvalues: 
  0.938  0.938  0.939
    eigenvectors:
  0.500  0.491  0.009
  0.000  0.018  0.982
  0.500  0.491  0.009
    occupations:
  0.938  0.000  0.000
  0.000  0.939  0.000
  0.000  0.000  0.938
atomic mag. moment =    -0.000571
atom   15   Tr[ns(na)] (up, down, total) =   2.81402  2.81403  5.62804
   spin  1
    eigenvalues: 
  0.938  0.938  0.938
    eigenvectors:
  0.438  0.229  0.333
  0.555  0.111  0.333
  0.007  0.660  0.333
    occupations:
  0.938  0.000  0.000
  0.000  0.938  0.000
  0.000  0.000  0.938
   spin  2
    eigenvalues: 
  0.938  0.938  0.938
    eigenvectors:
  0.409  0.257  0.333
  0.576  0.090  0.333
  0.014  0.652  0.333
    occupations:
  0.938  0.000  0.000
  0.000  0.938  0.000
  0.000  0.000  0.938
atomic mag. moment =    -0.000009
atom   16   Tr[ns(na)] (up, down, total) =   2.81397  2.81454  5.62852
   spin  1
    eigenvalues: 
  0.938  0.938  0.938
    eigenvectors:
  0.000  0.525  0.475
  0.500  0.237  0.263
  0.500  0.237  0.263
    occupations:
  0.938  0.000  0.000
  0.000  0.938  0.000
  0.000  0.000  0.938
   spin  2
    eigenvalues: 
  0.938  0.938  0.939
    eigenvectors:
  0.000  0.018  0.982
  0.500  0.491  0.009
  0.500  0.491  0.009
    occupations:
  0.939  0.000  0.000
  0.000  0.938  0.000
  0.000  0.000  0.938
atomic mag. moment =    -0.000571
N of occupied +U levels = 114.5438367
 --- exit write_ns ---

 ------ SPIN UP ------------


          k = 0.0000 0.0000 0.0000 (  2733 PWs)   bands (ev):

    -8.0387  -6.6413  -6.6407  -6.6405  -6.6405  -6.5732  -6.5685  -6.5685
     4.0456   4.0517   4.0517   4.0532   5.3562   5.3563   5.3563   6.5237
     6.5237   6.5320   6.5378   6.5378   6.5646   6.5701   6.5701   7.9943
     7.9943   7.9947   7.9955   7.9959   7.9959   8.8039   8.8039   8.8047
     9.3038   9.3038   9.3062   9.5171   9.5171   9.6596   9.8469   9.8469
     9.8929   9.8965   9.8965  10.1806  10.1806  10.1847  10.4505  10.4541
    10.4541  10.5618  10.5618  10.5624  10.8906  10.8906  11.0167  11.0177
    11.0177  11.1581  11.2423  11.2429  11.2429  11.3636  11.3636  11.3638
    13.5624  13.5624  13.6231  13.6233  13.6233  13.7084  13.7089  13.7089
    13.7719  17.8034  17.8050  17.8050  17.8061

          k = 0.2500-0.2500-0.2500 (  2764 PWs)   bands (ev):

    -7.4031  -7.4028  -6.6185  -6.6140  -6.6139  -6.6124  -6.6094  -6.6071
     5.0705   5.0755   5.0839   5.0868   5.0944   5.0965   6.1163   6.1193
     6.3306   6.3377   6.3966   6.4034   6.4740   6.4799   6.8473   6.8554
     7.0257   7.0304   7.3381   7.3400   7.4986   7.5013   7.6640   7.6658
     9.5890   9.6001   9.7808   9.7900   9.8527   9.8594   9.9817   9.9900
    10.1214  10.1290  10.1716  10.1781  10.4916  10.4944  10.6111  10.6113
    10.6416  10.6420  10.8387  10.8402  10.9388  10.9399  11.2212  11.2213
    11.2334  11.2341  11.2780  11.2784  11.3087  11.3096  11.4197  11.4202
    13.0604  13.0614  13.0647  13.0657  13.0719  13.0732  13.0847  13.0858
    16.5013  16.5026  19.6590  19.6625  19.7233

          k = 0.0000 0.0000-0.5000 (  2762 PWs)   bands (ev):

    -7.2657  -7.2640  -6.7691  -6.7687  -6.7686  -6.7661  -6.4645  -6.4603
     5.0326   5.0375   5.0434   5.0480   5.7870   5.7889   6.1232   6.1269
     6.1275   6.1306   6.4177   6.4213   6.6486   6.6546   6.6825   6.6914
     6.7413   6.7470   6.7480   6.7529   8.1755   8.1784   8.1856   8.1877
     9.2105   9.2229   9.8967   9.9009   9.9783   9.9824  10.0016  10.0111
    10.0169  10.0187  10.1295  10.1369  10.3179  10.3254  10.4503  10.4558
    10.4826  10.4848  10.5544  10.5603  10.8914  10.8923  10.9778  10.9796
    11.1305  11.1315  11.2138  11.2148  11.3130  11.3140  11.3281  11.3289
    12.4758  12.4765  12.7334  12.7339  13.5340  13.5345  13.6358  13.6365
    17.6876  17.6896  19.2708  19.2710  19.2712

          k =-0.2500-0.2500-0.2500 (  2764 PWs)   bands (ev):

    -7.4076  -7.3983  -6.6249  -6.6201  -6.6201  -6.6036  -6.6031  -6.6031
     5.0304   5.0348   5.0348   5.1356   5.1362   5.1362   6.1012   6.1386
     6.2640   6.2689   6.2689   6.7157   6.7157   6.7159   6.7441   6.7503
     6.7503   6.9687   6.9687   7.4807   7.4807   7.4808   7.8964   7.8964
     9.4483   9.4483   9.4534   9.6294   9.6294  10.0673  10.0727  10.0727
    10.0871  10.4331  10.4331  10.4333  10.4684  10.4684  10.4684  10.7066
    10.7066  10.8050  10.8054  10.8054  10.8546  11.0330  11.0332  11.0332
    11.2223  11.2230  11.2230  11.2909  11.2909  11.3820  11.3820  11.3825
    13.0598  13.0606  13.0606  13.0803  13.0803  13.0899  13.0909  13.0909
    16.4246  16.5824  19.6351  19.6420  19.6420

 ------ SPIN DOWN ----------


          k = 0.0000 0.0000 0.0000 (  2733 PWs)   bands (ev):

    -8.0395  -6.6420  -6.6418  -6.6418  -6.6413  -6.5736  -6.5700  -6.5700
     4.0445   4.0511   4.0511   4.0526   5.3556   5.3556   5.3556   6.5222
     6.5222   6.5317   6.5346   6.5346   6.5641   6.5660   6.5660   7.9933
     7.9933   7.9941   7.9944   7.9952   7.9952   8.8011   8.8016   8.8016
     9.3028   9.3028   9.3050   9.5130   9.5130   9.6569   9.8493   9.8493
     9.8928   9.8951   9.8951  10.1807  10.1807  10.1818  10.4504  10.4527
    10.4527  10.5610  10.5610  10.5616  10.8952  10.8952  11.0200  11.0210
    11.0210  11.1618  11.2423  11.2499  11.2499  11.3674  11.3674  11.3705
    13.5648  13.5648  13.6229  13.6271  13.6271  13.7083  13.7141  13.7141
    13.7717  17.8032  17.8048  17.8048  17.8061

          k = 0.2500-0.2500-0.2500 (  2764 PWs)   bands (ev):

    -7.4040  -7.4037  -6.6194  -6.6183  -6.6150  -6.6119  -6.6104  -6.6067
     5.0705   5.0710   5.0833   5.0865   5.0932   5.0981   6.1155   6.1182
     6.3296   6.3322   6.3960   6.3985   6.4734   6.4769   6.8468   6.8480
     7.0253   7.0286   7.3377   7.3433   7.4979   7.5038   7.6633   7.6693
     9.5890   9.5897   9.7807   9.7835   9.8524   9.8574   9.9816   9.9838
    10.1214  10.1232  10.1717  10.1718  10.4912  10.4935  10.6104  10.6161
    10.6413  10.6541  10.8381  10.8408  10.9382  10.9415  11.2204  11.2266
    11.2332  11.2406  11.2776  11.2857  11.3087  11.3187  11.4192  11.4249
    13.0603  13.0640  13.0646  13.0702  13.0719  13.0845  13.0880  13.0983
    16.5010  16.5022  19.6626  19.6633  19.7229

          k = 0.0000 0.0000-0.5000 (  2762 PWs)   bands (ev):

    -7.2663  -7.2653  -6.7700  -6.7699  -6.7691  -6.7675  -6.4652  -6.4618
     5.0324   5.0333   5.0431   5.0462   5.7866   5.7892   6.1222   6.1259
     6.1259   6.1299   6.4173   6.4202   6.6483   6.6511   6.6823   6.6860
     6.7404   6.7453   6.7474   6.7527   8.1744   8.1770   8.1843   8.1874
     9.2104   9.2166   9.8965   9.8979   9.9781   9.9796  10.0013  10.0020
    10.0168  10.0230  10.1292  10.1313  10.3174  10.3192  10.4501  10.4504
    10.4824  10.4880  10.5538  10.5544  10.8913  10.9036  10.9778  10.9859
    11.1303  11.1392  11.2135  11.2248  11.3130  11.3228  11.3278  11.3379
    12.4758  12.4886  12.7334  12.7443  13.5339  13.5396  13.6357  13.6432
    17.6869  17.6892  19.2705  19.2707  19.2709

          k =-0.2500-0.2500-0.2500 (  2764 PWs)   bands (ev):

    -7.4082  -7.3995  -6.6256  -6.6256  -6.6252  -6.6040  -6.6005  -6.6005
     5.0288   5.0300   5.0300   5.1350   5.1401   5.1401   6.0975   6.1404
     6.2616   6.2616   6.2622   6.7176   6.7203   6.7203   6.7433   6.7433
     6.7436   6.9633   6.9633   7.4805   7.4856   7.4856   7.9001   7.9001
     9.4434   9.4434   9.4436   9.6237   9.6237  10.0672  10.0673  10.0673
    10.0826  10.4392  10.4392  10.4430  10.4650  10.4650  10.4650  10.7132
    10.7132  10.8033  10.8033  10.8038  10.8603  11.0322  11.0322  11.0325
    11.2223  11.2302  11.2302  11.2902  11.2902  11.3855  11.3855  11.3893
    13.0598  13.0639  13.0639  13.0821  13.0821  13.0898  13.1031  13.1031
    16.4254  16.5808  19.6405  19.6405  19.6413

     the Fermi energy is    11.9504 ev

!    total energy              =    -941.95150654 Ry
     Harris-Foulkes estimate   =    -941.95150654 Ry
     estimated scf accuracy    <          3.5E-09 Ry

     The total energy is the sum of the following terms:

     one-electron contribution =     -56.23985160 Ry
     hartree contribution      =     175.68870293 Ry
     xc contribution           =    -297.58762585 Ry
     ewald contribution        =    -763.85740583 Ry
     Hubbard energy            =       0.04467381 Ry
     smearing contrib. (-TS)   =       0.00000000 Ry

     total magnetization       =     0.00 Bohr mag/cell
     absolute magnetization    =    12.66 Bohr mag/cell

     convergence has been achieved in   7 iterations

     Writing output data file nio.save
 
     init_run     :     13.75s CPU     15.11s WALL (       1 calls)
     electrons    :    181.16s CPU    191.90s WALL (       1 calls)

     Called by init_run:
     wfcinit      :      0.19s CPU      0.21s WALL (       1 calls)
     potinit      :      1.19s CPU      1.40s WALL (       1 calls)

     Called by electrons:
     c_bands      :     30.72s CPU     32.44s WALL (       7 calls)
     sum_band     :     75.08s CPU     76.25s WALL (       7 calls)
     v_of_rho     :      7.80s CPU      8.70s WALL (       8 calls)
     newd         :     75.11s CPU     82.79s WALL (       8 calls)
     mix_rho      :      1.09s CPU      1.20s WALL (       7 calls)

     Called by c_bands:
     init_us_2    :      0.35s CPU      0.36s WALL (      30 calls)
     cegterg      :     29.62s CPU     31.14s WALL (      14 calls)

     Called by *egterg:
     h_psi        :     21.51s CPU     22.35s WALL (      70 calls)
     s_psi        :      1.86s CPU      1.87s WALL (      72 calls)
     g_psi        :      0.10s CPU      0.10s WALL (      56 calls)
     cdiaghg      :      1.60s CPU      1.60s WALL (      68 calls)

     Called by h_psi:
     add_vuspsi   :      1.78s CPU      1.77s WALL (      70 calls)

     General routines
     calbec       :      3.10s CPU      3.11s WALL (     170 calls)
     fft          :      6.49s CPU      7.32s WALL (     236 calls)
     ffts         :      0.07s CPU      0.10s WALL (      30 calls)
     fftw         :     11.60s CPU     12.67s WALL (    6482 calls)
     interpolate  :      1.20s CPU      1.53s WALL (      30 calls)
     davcio       :      0.00s CPU      0.46s WALL (      88 calls)
 
     Parallel routines
     fft_scatter  :      3.43s CPU      4.12s WALL (    6748 calls)
     EXX routines
 
     PWSCF        :  3m15.30s CPU     3m27.52s WALL

 
   This run was terminated on:  12: 7:32  17Jun2012            

=------------------------------------------------------------------------------=
   JOB DONE.
=------------------------------------------------------------------------------=
