
     Program PWSCF v.5.0        starts on 17Jun2012 at 12: 8:19 

     This program is part of the open-source Quantum ESPRESSO suite
     for quantum simulation of materials; please cite
         "P. Giannozzi et al., J. Phys.:Condens. Matter 21 395502 (2009);
          URL http://www.quantum-espresso.org", 
     in publications or presentations arising from this work. More details at
     http://www.quantum-espresso.org/quote.php

     Parallel version (MPI), running on     4 processors
     K-points division:     npool     =    4

     Current dimensions of program PWSCF are:
     Max number of different atomic species (ntypx) = 10
     Max number of k-points (npk) =  40000
     Max angular momentum in pseudopotentials (lmaxx) =  3
     Waiting for input...
     Reading input from standard input
               file Ni.pbe-nd-rrkjus.UPF: wavefunction(s)  4S renormalized
               file Ni.pbe-nd-rrkjus.UPF: wavefunction(s)  4S renormalized
               file O.pbe-rrkjus.UPF: wavefunction(s)  2S renormalized
               file O.pbe-rrkjus.UPF: wavefunction(s)  2S renormalized

     Subspace diagonalization in iterative solution of the eigenvalue problem:
     a serial algorithm will be used

 
     G-vector sticks info
     --------------------
     sticks:   dense  smooth     PW     G-vecs:    dense   smooth      PW
     Sum        2587    1039    295                86547    22075    3287
 


     bravais-lattice index     =            0
     lattice parameter (alat)  =       7.9000  a.u.
     unit-cell volume          =     986.0780 (a.u.)^3
     number of atoms/cell      =           16
     number of atomic types    =            4
     number of electrons       =       128.00
     number of Kohn-Sham states=           77
     kinetic-energy cutoff     =      30.0000  Ry
     charge density cutoff     =     300.0000  Ry
     convergence threshold     =      1.0E-08
     mixing beta               =       0.3000
     number of iterations used =            8  plain     mixing
     Exchange-correlation      =  SLA  PW   PBE  PBE ( 1 4 3 4 0)
     EXX-fraction              =        0.00

     celldm(1)=   7.900000  celldm(2)=   0.000000  celldm(3)=   0.000000
     celldm(4)=   0.000000  celldm(5)=   0.000000  celldm(6)=   0.000000

     crystal axes: (cart. coord. in units of alat)
               a(1) = (   1.000000   1.000000   0.000000 )  
               a(2) = (   1.000000   0.000000   1.000000 )  
               a(3) = (   0.000000   1.000000   1.000000 )  

     reciprocal axes: (cart. coord. in units 2 pi/alat)
               b(1) = (  0.500000  0.500000 -0.500000 )  
               b(2) = (  0.500000 -0.500000  0.500000 )  
               b(3) = ( -0.500000  0.500000  0.500000 )  


     PseudoPot. # 1 for Ni read from file:
     ../pseudo/Ni.pbe-nd-rrkjus.UPF
     MD5 check sum: 8081f0a005c9a5470caab1a58e82ecb2
     Pseudo is Ultrasoft + core correction, Zval = 10.0
     Generated by new atomic code, or converted to UPF format
     Using radial grid of 1203 points,  6 beta functions with: 
                l(1) =   0
                l(2) =   0
                l(3) =   1
                l(4) =   1
                l(5) =   2
                l(6) =   2
     Q(r) pseudized with 0 coefficients 


     PseudoPot. # 2 for Ni read from file:
     ../pseudo/Ni.pbe-nd-rrkjus.UPF
     MD5 check sum: 8081f0a005c9a5470caab1a58e82ecb2
     Pseudo is Ultrasoft + core correction, Zval = 10.0
     Generated by new atomic code, or converted to UPF format
     Using radial grid of 1203 points,  6 beta functions with: 
                l(1) =   0
                l(2) =   0
                l(3) =   1
                l(4) =   1
                l(5) =   2
                l(6) =   2
     Q(r) pseudized with 0 coefficients 


     PseudoPot. # 3 for O  read from file:
     ../pseudo/O.pbe-rrkjus.UPF
     MD5 check sum: 390ba29e75625707450f3bd3f0eb6be9
     Pseudo is Ultrasoft, Zval =  6.0
     Generated by new atomic code, or converted to UPF format
     Using radial grid of 1269 points,  4 beta functions with: 
                l(1) =   0
                l(2) =   0
                l(3) =   1
                l(4) =   1
     Q(r) pseudized with 0 coefficients 


     PseudoPot. # 4 for O  read from file:
     ../pseudo/O.pbe-rrkjus.UPF
     MD5 check sum: 390ba29e75625707450f3bd3f0eb6be9
     Pseudo is Ultrasoft, Zval =  6.0
     Generated by new atomic code, or converted to UPF format
     Using radial grid of 1269 points,  4 beta functions with: 
                l(1) =   0
                l(2) =   0
                l(3) =   1
                l(4) =   1
     Q(r) pseudized with 0 coefficients 


     atomic species   valence    mass     pseudopotential
        Ni1           10.00     1.00000     Ni( 1.00)
        Ni2           10.00     1.00000     Ni( 1.00)
        O1             6.00     1.00000     O ( 1.00)
        O2             6.00     1.00000     O ( 1.00)

     Starting magnetic structure 
     atomic species   magnetization
        Ni1          0.500
        Ni2         -0.500
        O1           0.000
        O2           0.000
 -----
     simplified LDA+U calculation, Hubbard_lmax = 2
     atomic species  L   Hubbard U  Hubbard alpha
        Ni1          2    0.000000    0.000000
        Ni2          2    0.000000    0.000000
        O1           1    0.000000    0.000000
        O2           1    0.000000    0.000000
 -----

      6 Sym. Ops. (no inversion) found



   Cartesian axes

     site n.     atom                  positions (alat units)
         1           Ni1 tau(   1) = (   0.0000000   0.0000000  -0.5000000  )
         2           Ni1 tau(   2) = (   1.0000000   0.5000000   0.0000000  )
         3           Ni1 tau(   3) = (   0.5000000   1.0000000   0.0000000  )
         4           Ni1 tau(   4) = (   0.5000000   0.5000000   0.5000000  )
         5           Ni2 tau(   5) = (   0.5000000   0.5000000  -0.5000000  )
         6           Ni2 tau(   6) = (   0.5000000   0.0000000   0.0000000  )
         7           Ni2 tau(   7) = (   0.0000000   0.5000000   0.0000000  )
         8           Ni2 tau(   8) = (   1.0000000   1.0000000   0.5000000  )
         9           O1  tau(   9) = (   0.0000000   0.0000000   0.0000000  )
        10           O2  tau(  10) = (   0.5000000   0.5000000   0.0000000  )
        11           O2  tau(  11) = (   0.0000000   0.5000000   0.5000000  )
        12           O2  tau(  12) = (   0.5000000   0.0000000   0.5000000  )
        13           O2  tau(  13) = (   1.0000000   0.5000000   0.5000000  )
        14           O2  tau(  14) = (   0.5000000   1.0000000   0.5000000  )
        15           O2  tau(  15) = (   0.5000000   0.5000000   1.0000000  )
        16           O2  tau(  16) = (   1.0000000   1.0000000   1.0000000  )

     number of k points=     8  gaussian smearing, width (Ry)=  0.0100
                       cart. coord. in units 2pi/alat
        k(    1) = (   0.0000000   0.0000000   0.0000000), wk =   0.1250000
        k(    2) = (   0.2500000  -0.2500000  -0.2500000), wk =   0.3750000
        k(    3) = (   0.0000000   0.0000000  -0.5000000), wk =   0.3750000
        k(    4) = (  -0.2500000  -0.2500000  -0.2500000), wk =   0.1250000
        k(    5) = (   0.0000000   0.0000000   0.0000000), wk =   0.1250000
        k(    6) = (   0.2500000  -0.2500000  -0.2500000), wk =   0.3750000
        k(    7) = (   0.0000000   0.0000000  -0.5000000), wk =   0.3750000
        k(    8) = (  -0.2500000  -0.2500000  -0.2500000), wk =   0.1250000

     Dense  grid:    86547 G-vectors     FFT dimensions: (  64,  64,  64)

     Smooth grid:    22075 G-vectors     FFT dimensions: (  40,  40,  40)

     Largest allocated arrays     est. size (Mb)     dimensions
        Kohn-Sham Wavefunctions         3.25 Mb     (   2764,   77)
        Atomic wavefunctions            3.37 Mb     (   2764,   80)
        NL pseudopotentials             8.77 Mb     (   2764,  208)
        Each V/rho on FFT grid          8.00 Mb     ( 262144,   2)
        Each G-vector array             0.66 Mb     (  86547)
        G-vector shells                 0.00 Mb     (    635)
     Largest temporary arrays     est. size (Mb)     dimensions
        Auxiliary wavefunctions        12.99 Mb     (   2764,  308)
        Each subspace H/S matrix        1.45 Mb     ( 308, 308)
        Each <psi_i|beta_j> matrix      0.24 Mb     (    208,   77)
        Arrays for rho mixing          32.00 Mb     ( 262144,   8)

     Check: negative/imaginary core charge=   -0.000047    0.000000

     Initial potential from superposition of free atoms

     starting charge  127.99632, renormalised to  128.00000
     Number of +U iterations with fixed ns =  0
     Starting occupations:
 --- enter write_ns ---
 LDA+U parameters:
U( 1)     =  0.00000000
alpha( 1) =  0.00000000
U( 2)     =  0.00000000
alpha( 2) =  0.00000000
U( 3)     =  0.00000000
alpha( 3) =  0.00000000
U( 4)     =  0.00000000
alpha( 4) =  0.00000000
atom    1   Tr[ns(na)] (up, down, total) =   5.00000  3.00000  8.00000
   spin  1
    eigenvalues: 
  1.000  1.000  1.000  1.000  1.000
    eigenvectors:
  1.000  0.000  0.000  0.000  0.000
  0.000  1.000  0.000  0.000  0.000
  0.000  0.000  1.000  0.000  0.000
  0.000  0.000  0.000  1.000  0.000
  0.000  0.000  0.000  0.000  1.000
    occupations:
  1.000  0.000  0.000  0.000  0.000
  0.000  1.000  0.000  0.000  0.000
  0.000  0.000  1.000  0.000  0.000
  0.000  0.000  0.000  1.000  0.000
  0.000  0.000  0.000  0.000  1.000
   spin  2
    eigenvalues: 
  0.600  0.600  0.600  0.600  0.600
    eigenvectors:
  1.000  0.000  0.000  0.000  0.000
  0.000  1.000  0.000  0.000  0.000
  0.000  0.000  1.000  0.000  0.000
  0.000  0.000  0.000  1.000  0.000
  0.000  0.000  0.000  0.000  1.000
    occupations:
  0.600  0.000  0.000  0.000  0.000
  0.000  0.600  0.000  0.000  0.000
  0.000  0.000  0.600  0.000  0.000
  0.000  0.000  0.000  0.600  0.000
  0.000  0.000  0.000  0.000  0.600
atomic mag. moment =     2.000000
atom    2   Tr[ns(na)] (up, down, total) =   5.00000  3.00000  8.00000
   spin  1
    eigenvalues: 
  1.000  1.000  1.000  1.000  1.000
    eigenvectors:
  1.000  0.000  0.000  0.000  0.000
  0.000  1.000  0.000  0.000  0.000
  0.000  0.000  1.000  0.000  0.000
  0.000  0.000  0.000  1.000  0.000
  0.000  0.000  0.000  0.000  1.000
    occupations:
  1.000  0.000  0.000  0.000  0.000
  0.000  1.000  0.000  0.000  0.000
  0.000  0.000  1.000  0.000  0.000
  0.000  0.000  0.000  1.000  0.000
  0.000  0.000  0.000  0.000  1.000
   spin  2
    eigenvalues: 
  0.600  0.600  0.600  0.600  0.600
    eigenvectors:
  1.000  0.000  0.000  0.000  0.000
  0.000  1.000  0.000  0.000  0.000
  0.000  0.000  1.000  0.000  0.000
  0.000  0.000  0.000  1.000  0.000
  0.000  0.000  0.000  0.000  1.000
    occupations:
  0.600  0.000  0.000  0.000  0.000
  0.000  0.600  0.000  0.000  0.000
  0.000  0.000  0.600  0.000  0.000
  0.000  0.000  0.000  0.600  0.000
  0.000  0.000  0.000  0.000  0.600
atomic mag. moment =     2.000000
atom    3   Tr[ns(na)] (up, down, total) =   5.00000  3.00000  8.00000
   spin  1
    eigenvalues: 
  1.000  1.000  1.000  1.000  1.000
    eigenvectors:
  1.000  0.000  0.000  0.000  0.000
  0.000  1.000  0.000  0.000  0.000
  0.000  0.000  1.000  0.000  0.000
  0.000  0.000  0.000  1.000  0.000
  0.000  0.000  0.000  0.000  1.000
    occupations:
  1.000  0.000  0.000  0.000  0.000
  0.000  1.000  0.000  0.000  0.000
  0.000  0.000  1.000  0.000  0.000
  0.000  0.000  0.000  1.000  0.000
  0.000  0.000  0.000  0.000  1.000
   spin  2
    eigenvalues: 
  0.600  0.600  0.600  0.600  0.600
    eigenvectors:
  1.000  0.000  0.000  0.000  0.000
  0.000  1.000  0.000  0.000  0.000
  0.000  0.000  1.000  0.000  0.000
  0.000  0.000  0.000  1.000  0.000
  0.000  0.000  0.000  0.000  1.000
    occupations:
  0.600  0.000  0.000  0.000  0.000
  0.000  0.600  0.000  0.000  0.000
  0.000  0.000  0.600  0.000  0.000
  0.000  0.000  0.000  0.600  0.000
  0.000  0.000  0.000  0.000  0.600
atomic mag. moment =     2.000000
atom    4   Tr[ns(na)] (up, down, total) =   5.00000  3.00000  8.00000
   spin  1
    eigenvalues: 
  1.000  1.000  1.000  1.000  1.000
    eigenvectors:
  1.000  0.000  0.000  0.000  0.000
  0.000  1.000  0.000  0.000  0.000
  0.000  0.000  1.000  0.000  0.000
  0.000  0.000  0.000  1.000  0.000
  0.000  0.000  0.000  0.000  1.000
    occupations:
  1.000  0.000  0.000  0.000  0.000
  0.000  1.000  0.000  0.000  0.000
  0.000  0.000  1.000  0.000  0.000
  0.000  0.000  0.000  1.000  0.000
  0.000  0.000  0.000  0.000  1.000
   spin  2
    eigenvalues: 
  0.600  0.600  0.600  0.600  0.600
    eigenvectors:
  1.000  0.000  0.000  0.000  0.000
  0.000  1.000  0.000  0.000  0.000
  0.000  0.000  1.000  0.000  0.000
  0.000  0.000  0.000  1.000  0.000
  0.000  0.000  0.000  0.000  1.000
    occupations:
  0.600  0.000  0.000  0.000  0.000
  0.000  0.600  0.000  0.000  0.000
  0.000  0.000  0.600  0.000  0.000
  0.000  0.000  0.000  0.600  0.000
  0.000  0.000  0.000  0.000  0.600
atomic mag. moment =     2.000000
atom    5   Tr[ns(na)] (up, down, total) =   3.00000  5.00000  8.00000
   spin  1
    eigenvalues: 
  0.600  0.600  0.600  0.600  0.600
    eigenvectors:
  1.000  0.000  0.000  0.000  0.000
  0.000  1.000  0.000  0.000  0.000
  0.000  0.000  1.000  0.000  0.000
  0.000  0.000  0.000  1.000  0.000
  0.000  0.000  0.000  0.000  1.000
    occupations:
  0.600  0.000  0.000  0.000  0.000
  0.000  0.600  0.000  0.000  0.000
  0.000  0.000  0.600  0.000  0.000
  0.000  0.000  0.000  0.600  0.000
  0.000  0.000  0.000  0.000  0.600
   spin  2
    eigenvalues: 
  1.000  1.000  1.000  1.000  1.000
    eigenvectors:
  1.000  0.000  0.000  0.000  0.000
  0.000  1.000  0.000  0.000  0.000
  0.000  0.000  1.000  0.000  0.000
  0.000  0.000  0.000  1.000  0.000
  0.000  0.000  0.000  0.000  1.000
    occupations:
  1.000  0.000  0.000  0.000  0.000
  0.000  1.000  0.000  0.000  0.000
  0.000  0.000  1.000  0.000  0.000
  0.000  0.000  0.000  1.000  0.000
  0.000  0.000  0.000  0.000  1.000
atomic mag. moment =    -2.000000
atom    6   Tr[ns(na)] (up, down, total) =   3.00000  5.00000  8.00000
   spin  1
    eigenvalues: 
  0.600  0.600  0.600  0.600  0.600
    eigenvectors:
  1.000  0.000  0.000  0.000  0.000
  0.000  1.000  0.000  0.000  0.000
  0.000  0.000  1.000  0.000  0.000
  0.000  0.000  0.000  1.000  0.000
  0.000  0.000  0.000  0.000  1.000
    occupations:
  0.600  0.000  0.000  0.000  0.000
  0.000  0.600  0.000  0.000  0.000
  0.000  0.000  0.600  0.000  0.000
  0.000  0.000  0.000  0.600  0.000
  0.000  0.000  0.000  0.000  0.600
   spin  2
    eigenvalues: 
  1.000  1.000  1.000  1.000  1.000
    eigenvectors:
  1.000  0.000  0.000  0.000  0.000
  0.000  1.000  0.000  0.000  0.000
  0.000  0.000  1.000  0.000  0.000
  0.000  0.000  0.000  1.000  0.000
  0.000  0.000  0.000  0.000  1.000
    occupations:
  1.000  0.000  0.000  0.000  0.000
  0.000  1.000  0.000  0.000  0.000
  0.000  0.000  1.000  0.000  0.000
  0.000  0.000  0.000  1.000  0.000
  0.000  0.000  0.000  0.000  1.000
atomic mag. moment =    -2.000000
atom    7   Tr[ns(na)] (up, down, total) =   3.00000  5.00000  8.00000
   spin  1
    eigenvalues: 
  0.600  0.600  0.600  0.600  0.600
    eigenvectors:
  1.000  0.000  0.000  0.000  0.000
  0.000  1.000  0.000  0.000  0.000
  0.000  0.000  1.000  0.000  0.000
  0.000  0.000  0.000  1.000  0.000
  0.000  0.000  0.000  0.000  1.000
    occupations:
  0.600  0.000  0.000  0.000  0.000
  0.000  0.600  0.000  0.000  0.000
  0.000  0.000  0.600  0.000  0.000
  0.000  0.000  0.000  0.600  0.000
  0.000  0.000  0.000  0.000  0.600
   spin  2
    eigenvalues: 
  1.000  1.000  1.000  1.000  1.000
    eigenvectors:
  1.000  0.000  0.000  0.000  0.000
  0.000  1.000  0.000  0.000  0.000
  0.000  0.000  1.000  0.000  0.000
  0.000  0.000  0.000  1.000  0.000
  0.000  0.000  0.000  0.000  1.000
    occupations:
  1.000  0.000  0.000  0.000  0.000
  0.000  1.000  0.000  0.000  0.000
  0.000  0.000  1.000  0.000  0.000
  0.000  0.000  0.000  1.000  0.000
  0.000  0.000  0.000  0.000  1.000
atomic mag. moment =    -2.000000
atom    8   Tr[ns(na)] (up, down, total) =   3.00000  5.00000  8.00000
   spin  1
    eigenvalues: 
  0.600  0.600  0.600  0.600  0.600
    eigenvectors:
  1.000  0.000  0.000  0.000  0.000
  0.000  1.000  0.000  0.000  0.000
  0.000  0.000  1.000  0.000  0.000
  0.000  0.000  0.000  1.000  0.000
  0.000  0.000  0.000  0.000  1.000
    occupations:
  0.600  0.000  0.000  0.000  0.000
  0.000  0.600  0.000  0.000  0.000
  0.000  0.000  0.600  0.000  0.000
  0.000  0.000  0.000  0.600  0.000
  0.000  0.000  0.000  0.000  0.600
   spin  2
    eigenvalues: 
  1.000  1.000  1.000  1.000  1.000
    eigenvectors:
  1.000  0.000  0.000  0.000  0.000
  0.000  1.000  0.000  0.000  0.000
  0.000  0.000  1.000  0.000  0.000
  0.000  0.000  0.000  1.000  0.000
  0.000  0.000  0.000  0.000  1.000
    occupations:
  1.000  0.000  0.000  0.000  0.000
  0.000  1.000  0.000  0.000  0.000
  0.000  0.000  1.000  0.000  0.000
  0.000  0.000  0.000  1.000  0.000
  0.000  0.000  0.000  0.000  1.000
atomic mag. moment =    -2.000000
atom    9   Tr[ns(na)] (up, down, total) =   2.00000  2.00000  4.00000
   spin  1
    eigenvalues: 
  0.667  0.667  0.667
    eigenvectors:
  1.000  0.000  0.000
  0.000  1.000  0.000
  0.000  0.000  1.000
    occupations:
  0.667  0.000  0.000
  0.000  0.667  0.000
  0.000  0.000  0.667
   spin  2
    eigenvalues: 
  0.667  0.667  0.667
    eigenvectors:
  1.000  0.000  0.000
  0.000  1.000  0.000
  0.000  0.000  1.000
    occupations:
  0.667  0.000  0.000
  0.000  0.667  0.000
  0.000  0.000  0.667
atomic mag. moment =     0.000000
atom   10   Tr[ns(na)] (up, down, total) =   2.00000  2.00000  4.00000
   spin  1
    eigenvalues: 
  0.667  0.667  0.667
    eigenvectors:
  1.000  0.000  0.000
  0.000  1.000  0.000
  0.000  0.000  1.000
    occupations:
  0.667  0.000  0.000
  0.000  0.667  0.000
  0.000  0.000  0.667
   spin  2
    eigenvalues: 
  0.667  0.667  0.667
    eigenvectors:
  1.000  0.000  0.000
  0.000  1.000  0.000
  0.000  0.000  1.000
    occupations:
  0.667  0.000  0.000
  0.000  0.667  0.000
  0.000  0.000  0.667
atomic mag. moment =     0.000000
atom   11   Tr[ns(na)] (up, down, total) =   2.00000  2.00000  4.00000
   spin  1
    eigenvalues: 
  0.667  0.667  0.667
    eigenvectors:
  1.000  0.000  0.000
  0.000  1.000  0.000
  0.000  0.000  1.000
    occupations:
  0.667  0.000  0.000
  0.000  0.667  0.000
  0.000  0.000  0.667
   spin  2
    eigenvalues: 
  0.667  0.667  0.667
    eigenvectors:
  1.000  0.000  0.000
  0.000  1.000  0.000
  0.000  0.000  1.000
    occupations:
  0.667  0.000  0.000
  0.000  0.667  0.000
  0.000  0.000  0.667
atomic mag. moment =     0.000000
atom   12   Tr[ns(na)] (up, down, total) =   2.00000  2.00000  4.00000
   spin  1
    eigenvalues: 
  0.667  0.667  0.667
    eigenvectors:
  1.000  0.000  0.000
  0.000  1.000  0.000
  0.000  0.000  1.000
    occupations:
  0.667  0.000  0.000
  0.000  0.667  0.000
  0.000  0.000  0.667
   spin  2
    eigenvalues: 
  0.667  0.667  0.667
    eigenvectors:
  1.000  0.000  0.000
  0.000  1.000  0.000
  0.000  0.000  1.000
    occupations:
  0.667  0.000  0.000
  0.000  0.667  0.000
  0.000  0.000  0.667
atomic mag. moment =     0.000000
atom   13   Tr[ns(na)] (up, down, total) =   2.00000  2.00000  4.00000
   spin  1
    eigenvalues: 
  0.667  0.667  0.667
    eigenvectors:
  1.000  0.000  0.000
  0.000  1.000  0.000
  0.000  0.000  1.000
    occupations:
  0.667  0.000  0.000
  0.000  0.667  0.000
  0.000  0.000  0.667
   spin  2
    eigenvalues: 
  0.667  0.667  0.667
    eigenvectors:
  1.000  0.000  0.000
  0.000  1.000  0.000
  0.000  0.000  1.000
    occupations:
  0.667  0.000  0.000
  0.000  0.667  0.000
  0.000  0.000  0.667
atomic mag. moment =     0.000000
atom   14   Tr[ns(na)] (up, down, total) =   2.00000  2.00000  4.00000
   spin  1
    eigenvalues: 
  0.667  0.667  0.667
    eigenvectors:
  1.000  0.000  0.000
  0.000  1.000  0.000
  0.000  0.000  1.000
    occupations:
  0.667  0.000  0.000
  0.000  0.667  0.000
  0.000  0.000  0.667
   spin  2
    eigenvalues: 
  0.667  0.667  0.667
    eigenvectors:
  1.000  0.000  0.000
  0.000  1.000  0.000
  0.000  0.000  1.000
    occupations:
  0.667  0.000  0.000
  0.000  0.667  0.000
  0.000  0.000  0.667
atomic mag. moment =     0.000000
atom   15   Tr[ns(na)] (up, down, total) =   2.00000  2.00000  4.00000
   spin  1
    eigenvalues: 
  0.667  0.667  0.667
    eigenvectors:
  1.000  0.000  0.000
  0.000  1.000  0.000
  0.000  0.000  1.000
    occupations:
  0.667  0.000  0.000
  0.000  0.667  0.000
  0.000  0.000  0.667
   spin  2
    eigenvalues: 
  0.667  0.667  0.667
    eigenvectors:
  1.000  0.000  0.000
  0.000  1.000  0.000
  0.000  0.000  1.000
    occupations:
  0.667  0.000  0.000
  0.000  0.667  0.000
  0.000  0.000  0.667
atomic mag. moment =     0.000000
atom   16   Tr[ns(na)] (up, down, total) =   2.00000  2.00000  4.00000
   spin  1
    eigenvalues: 
  0.667  0.667  0.667
    eigenvectors:
  1.000  0.000  0.000
  0.000  1.000  0.000
  0.000  0.000  1.000
    occupations:
  0.667  0.000  0.000
  0.000  0.667  0.000
  0.000  0.000  0.667
   spin  2
    eigenvalues: 
  0.667  0.667  0.667
    eigenvectors:
  1.000  0.000  0.000
  0.000  1.000  0.000
  0.000  0.000  1.000
    occupations:
  0.667  0.000  0.000
  0.000  0.667  0.000
  0.000  0.000  0.667
atomic mag. moment =     0.000000
N of occupied +U levels =  96.0000000
 --- exit write_ns ---
 Atomic wfc used for LDA+U Projector are NOT orthogonalized
     Starting wfc are   80 randomized atomic wfcs

     total cpu time spent up to now is       16.1 secs

     per-process dynamical memory:    88.0 Mb

     Self-consistent Calculation

     iteration #  1     ecut=    30.00 Ry     beta=0.30
     Davidson diagonalization with overlap
     ethr =  1.00E-02,  avg # of iterations =  3.4
 --- enter write_ns ---
 LDA+U parameters:
U( 1)     =  0.00000000
alpha( 1) =  0.00000000
U( 2)     =  0.00000000
alpha( 2) =  0.00000000
U( 3)     =  0.00000000
alpha( 3) =  0.00000000
U( 4)     =  0.00000000
alpha( 4) =  0.00000000
atom    1   Tr[ns(na)] (up, down, total) =   4.98504  3.05430  8.03934
   spin  1
    eigenvalues: 
  0.995  0.995  0.998  0.998  0.999
    eigenvectors:
  1.000  0.000  0.000  0.000  0.000
  0.000  0.000  0.500  0.173  0.327
  0.000  0.000  0.500  0.173  0.327
  0.000  1.000  0.000  0.000  0.000
  0.000  0.000  0.000  0.653  0.346
    occupations:
  0.995  0.000  0.000  0.000  0.000
  0.000  0.998  0.000  0.000  0.000
  0.000  0.000  0.998  0.000  0.000
  0.000  0.000  0.000  0.995  0.000
  0.000  0.000  0.000  0.000  0.998
   spin  2
    eigenvalues: 
  0.231  0.231  0.853  0.853  0.886
    eigenvectors:
  1.000  0.000  0.000  0.000  0.000
  0.000  0.000  0.500  0.167  0.333
  0.000  0.000  0.500  0.167  0.333
  0.000  1.000  0.000  0.000  0.000
  0.000  0.000  0.000  0.666  0.333
    occupations:
  0.231  0.006  0.006  0.000  0.011
  0.006  0.864  0.011  0.010 -0.011
  0.006  0.011  0.864 -0.010 -0.011
  0.000  0.010 -0.010  0.231  0.000
  0.011 -0.011 -0.011  0.000  0.864
atomic mag. moment =     1.930739
atom    2   Tr[ns(na)] (up, down, total) =   4.98504  3.05430  8.03934
   spin  1
    eigenvalues: 
  0.995  0.995  0.998  0.998  0.999
    eigenvectors:
  0.250  0.750  0.000  0.000  0.000
  0.000  0.000  0.000  0.653  0.346
  0.000  0.000  0.500  0.173  0.327
  0.750  0.250  0.000  0.000  0.000
  0.000  0.000  0.500  0.173  0.327
    occupations:
  0.995  0.000  0.000  0.000  0.000
  0.000  0.998  0.000  0.000  0.000
  0.000  0.000  0.998  0.000  0.000
  0.000  0.000  0.000  0.995  0.000
  0.000  0.000  0.000  0.000  0.998
   spin  2
    eigenvalues: 
  0.231  0.231  0.853  0.853  0.886
    eigenvectors:
  0.250  0.750  0.000  0.000  0.000
  0.000  0.000  0.000  0.666  0.333
  0.000  0.000  0.500  0.167  0.333
  0.750  0.250  0.000  0.000  0.000
  0.000  0.000  0.500  0.167  0.333
    occupations:
  0.231  0.006  0.006  0.000  0.011
  0.006  0.864  0.011  0.010 -0.011
  0.006  0.011  0.864 -0.010 -0.011
  0.000  0.010 -0.010  0.231  0.000
  0.011 -0.011 -0.011  0.000  0.864
atomic mag. moment =     1.930739
atom    3   Tr[ns(na)] (up, down, total) =   4.98504  3.05430  8.03934
   spin  1
    eigenvalues: 
  0.995  0.995  0.998  0.998  0.999
    eigenvectors:
  0.250  0.750  0.000  0.000  0.000
  0.000  0.000  0.500  0.173  0.327
  0.000  0.000  0.000  0.653  0.346
  0.750  0.250  0.000  0.000  0.000
  0.000  0.000  0.500  0.173  0.327
    occupations:
  0.995  0.000  0.000  0.000  0.000
  0.000  0.998  0.000  0.000  0.000
  0.000  0.000  0.998  0.000  0.000
  0.000  0.000  0.000  0.995  0.000
  0.000  0.000  0.000  0.000  0.998
   spin  2
    eigenvalues: 
  0.231  0.231  0.853  0.853  0.886
    eigenvectors:
  0.250  0.750  0.000  0.000  0.000
  0.000  0.000  0.500  0.167  0.333
  0.000  0.000  0.000  0.666  0.333
  0.750  0.250  0.000  0.000  0.000
  0.000  0.000  0.500  0.167  0.333
    occupations:
  0.231  0.006  0.006  0.000  0.011
  0.006  0.864  0.011  0.010 -0.011
  0.006  0.011  0.864 -0.010 -0.011
  0.000  0.010 -0.010  0.231  0.000
  0.011 -0.011 -0.011  0.000  0.864
atomic mag. moment =     1.930739
atom    4   Tr[ns(na)] (up, down, total) =   4.98502  3.05443  8.03945
   spin  1
    eigenvalues: 
  0.995  0.995  0.998  0.998  0.999
    eigenvectors:
  0.136  0.864  0.000  0.000  0.000
  0.000  0.000  0.091  0.576  0.333
  0.000  0.000  0.257  0.410  0.333
  0.864  0.136  0.000  0.000  0.000
  0.000  0.000  0.652  0.014  0.333
    occupations:
  0.995  0.000  0.000  0.000  0.000
  0.000  0.998  0.000  0.000  0.000
  0.000  0.000  0.998  0.000  0.000
  0.000  0.000  0.000  0.995  0.000
  0.000  0.000  0.000  0.000  0.998
   spin  2
    eigenvalues: 
  0.231  0.231  0.854  0.854  0.886
    eigenvectors:
  0.271  0.729  0.000  0.000  0.000
  0.000  0.000  0.145  0.521  0.333
  0.000  0.000  0.189  0.477  0.333
  0.729  0.271  0.000  0.000  0.000
  0.000  0.000  0.665  0.001  0.333
    occupations:
  0.231  0.006  0.006  0.000  0.011
  0.006  0.864  0.011  0.010 -0.011
  0.006  0.011  0.864 -0.010 -0.011
  0.000  0.010 -0.010  0.231  0.000
  0.011 -0.011 -0.011  0.000  0.864
atomic mag. moment =     1.930591
atom    5   Tr[ns(na)] (up, down, total) =   3.05415  4.98506  8.03921
   spin  1
    eigenvalues: 
  0.230  0.230  0.853  0.853  0.886
    eigenvectors:
  0.392  0.608  0.000  0.000  0.000
  0.000  0.000  0.226  0.440  0.333
  0.000  0.000  0.113  0.553  0.333
  0.608  0.392  0.000  0.000  0.000
  0.000  0.000  0.660  0.006  0.333
    occupations:
  0.231  0.006  0.006  0.000  0.011
  0.006  0.864  0.011  0.010 -0.011
  0.006  0.011  0.864 -0.010 -0.011
  0.000  0.010 -0.010  0.231  0.000
  0.011 -0.011 -0.011  0.000  0.864
   spin  2
    eigenvalues: 
  0.995  0.995  0.998  0.998  0.999
    eigenvectors:
  0.077  0.923  0.000  0.000  0.000
  0.000  0.000  0.231  0.435  0.333
  0.000  0.000  0.109  0.557  0.333
  0.923  0.077  0.000  0.000  0.000
  0.000  0.000  0.659  0.008  0.333
    occupations:
  0.995  0.000  0.000  0.000  0.000
  0.000  0.998  0.000  0.000  0.000
  0.000  0.000  0.998  0.000  0.000
  0.000  0.000  0.000  0.995  0.000
  0.000  0.000  0.000  0.000  0.998
atomic mag. moment =    -1.930904
atom    6   Tr[ns(na)] (up, down, total) =   3.05435  4.98505  8.03940
   spin  1
    eigenvalues: 
  0.230  0.231  0.853  0.854  0.886
    eigenvectors:
  0.750  0.250  0.000  0.000  0.000
  0.000  0.000  0.167  0.500  0.333
  0.000  0.000  0.665  0.000  0.334
  0.250  0.750  0.000  0.000  0.000
  0.000  0.000  0.167  0.500  0.333
    occupations:
  0.231  0.006  0.006  0.000  0.011
  0.006  0.864  0.011  0.010 -0.011
  0.006  0.011  0.864 -0.010 -0.011
  0.000  0.010 -0.010  0.231  0.000
  0.011 -0.011 -0.011  0.000  0.864
   spin  2
    eigenvalues: 
  0.995  0.995  0.998  0.998  0.999
    eigenvectors:
  0.750  0.250  0.000  0.000  0.000
  0.000  0.000  0.163  0.500  0.336
  0.000  0.000  0.673  0.000  0.327
  0.250  0.750  0.000  0.000  0.000
  0.000  0.000  0.163  0.500  0.336
    occupations:
  0.995  0.000  0.000  0.000  0.000
  0.000  0.998  0.000  0.000  0.000
  0.000  0.000  0.998  0.000  0.000
  0.000  0.000  0.000  0.995  0.000
  0.000  0.000  0.000  0.000  0.998
atomic mag. moment =    -1.930700
atom    7   Tr[ns(na)] (up, down, total) =   3.05435  4.98505  8.03940
   spin  1
    eigenvalues: 
  0.230  0.231  0.853  0.854  0.886
    eigenvectors:
  0.750  0.250  0.000  0.000  0.000
  0.000  0.000  0.665  0.000  0.334
  0.000  0.000  0.167  0.500  0.333
  0.250  0.750  0.000  0.000  0.000
  0.000  0.000  0.167  0.500  0.333
    occupations:
  0.231  0.006  0.006  0.000  0.011
  0.006  0.864  0.011  0.010 -0.011
  0.006  0.011  0.864 -0.010 -0.011
  0.000  0.010 -0.010  0.231  0.000
  0.011 -0.011 -0.011  0.000  0.864
   spin  2
    eigenvalues: 
  0.995  0.995  0.998  0.998  0.999
    eigenvectors:
  0.750  0.250  0.000  0.000  0.000
  0.000  0.000  0.673  0.000  0.327
  0.000  0.000  0.163  0.500  0.336
  0.250  0.750  0.000  0.000  0.000
  0.000  0.000  0.163  0.500  0.336
    occupations:
  0.995  0.000  0.000  0.000  0.000
  0.000  0.998  0.000  0.000  0.000
  0.000  0.000  0.998  0.000  0.000
  0.000  0.000  0.000  0.995  0.000
  0.000  0.000  0.000  0.000  0.998
atomic mag. moment =    -1.930700
atom    8   Tr[ns(na)] (up, down, total) =   3.05435  4.98505  8.03940
   spin  1
    eigenvalues: 
  0.230  0.231  0.853  0.854  0.886
    eigenvectors:
  0.000  1.000  0.000  0.000  0.000
  0.000  0.000  0.167  0.500  0.333
  0.000  0.000  0.167  0.500  0.333
  1.000  0.000  0.000  0.000  0.000
  0.000  0.000  0.665  0.000  0.334
    occupations:
  0.231  0.006  0.006  0.000  0.011
  0.006  0.864  0.011  0.010 -0.011
  0.006  0.011  0.864 -0.010 -0.011
  0.000  0.010 -0.010  0.231  0.000
  0.011 -0.011 -0.011  0.000  0.864
   spin  2
    eigenvalues: 
  0.995  0.995  0.998  0.998  0.999
    eigenvectors:
  0.000  1.000  0.000  0.000  0.000
  0.000  0.000  0.163  0.500  0.336
  0.000  0.000  0.163  0.500  0.336
  1.000  0.000  0.000  0.000  0.000
  0.000  0.000  0.673  0.000  0.327
    occupations:
  0.995  0.000  0.000  0.000  0.000
  0.000  0.998  0.000  0.000  0.000
  0.000  0.000  0.998  0.000  0.000
  0.000  0.000  0.000  0.995  0.000
  0.000  0.000  0.000  0.000  0.998
atomic mag. moment =    -1.930700
atom    9   Tr[ns(na)] (up, down, total) =   2.96589  2.96586  5.93175
   spin  1
    eigenvalues: 
  0.988  0.988  0.989
    eigenvectors:
  0.397  0.270  0.333
  0.585  0.082  0.333
  0.018  0.648  0.333
    occupations:
  0.989  0.000  0.000
  0.000  0.989  0.000
  0.000  0.000  0.989
   spin  2
    eigenvalues: 
  0.988  0.988  0.989
    eigenvectors:
  0.373  0.293  0.333
  0.600  0.067  0.333
  0.027  0.640  0.333
    occupations:
  0.989  0.000  0.000
  0.000  0.989  0.000
  0.000  0.000  0.989
atomic mag. moment =     0.000030
atom   10   Tr[ns(na)] (up, down, total) =   2.96583  2.96584  5.93167
   spin  1
    eigenvalues: 
  0.988  0.988  0.989
    eigenvectors:
  0.681  0.000  0.319
  0.160  0.500  0.340
  0.160  0.500  0.340
    occupations:
  0.989  0.000  0.000
  0.000  0.989  0.000
  0.000  0.000  0.989
   spin  2
    eigenvalues: 
  0.988  0.988  0.989
    eigenvectors:
  0.671  0.000  0.329
  0.164  0.500  0.336
  0.164  0.500  0.336
    occupations:
  0.989  0.000  0.000
  0.000  0.989  0.000
  0.000  0.000  0.989
atomic mag. moment =    -0.000006
atom   11   Tr[ns(na)] (up, down, total) =   2.96583  2.96584  5.93167
   spin  1
    eigenvalues: 
  0.988  0.988  0.989
    eigenvectors:
  0.160  0.500  0.340
  0.681  0.000  0.319
  0.160  0.500  0.340
    occupations:
  0.989  0.000  0.000
  0.000  0.989  0.000
  0.000  0.000  0.989
   spin  2
    eigenvalues: 
  0.988  0.988  0.989
    eigenvectors:
  0.164  0.500  0.336
  0.671  0.000  0.329
  0.164  0.500  0.336
    occupations:
  0.989  0.000  0.000
  0.000  0.989  0.000
  0.000  0.000  0.989
atomic mag. moment =    -0.000006
atom   12   Tr[ns(na)] (up, down, total) =   2.96583  2.96584  5.93167
   spin  1
    eigenvalues: 
  0.988  0.988  0.989
    eigenvectors:
  0.160  0.500  0.340
  0.160  0.500  0.340
  0.681  0.000  0.319
    occupations:
  0.989  0.000  0.000
  0.000  0.989  0.000
  0.000  0.000  0.989
   spin  2
    eigenvalues: 
  0.988  0.988  0.989
    eigenvectors:
  0.164  0.500  0.336
  0.164  0.500  0.336
  0.671  0.000  0.329
    occupations:
  0.989  0.000  0.000
  0.000  0.989  0.000
  0.000  0.000  0.989
atomic mag. moment =    -0.000006
atom   13   Tr[ns(na)] (up, down, total) =   2.96581  2.96584  5.93165
   spin  1
    eigenvalues: 
  0.988  0.988  0.989
    eigenvectors:
  0.172  0.500  0.328
  0.656  0.000  0.344
  0.172  0.500  0.328
    occupations:
  0.989  0.000  0.000
  0.000  0.989  0.000
  0.000  0.000  0.989
   spin  2
    eigenvalues: 
  0.988  0.988  0.989
    eigenvectors:
  0.500  0.173  0.327
  0.000  0.654  0.346
  0.500  0.173  0.327
    occupations:
  0.989  0.000  0.000
  0.000  0.989  0.000
  0.000  0.000  0.989
atomic mag. moment =    -0.000025
atom   14   Tr[ns(na)] (up, down, total) =   2.96581  2.96584  5.93165
   spin  1
    eigenvalues: 
  0.988  0.988  0.989
    eigenvectors:
  0.172  0.500  0.328
  0.172  0.500  0.328
  0.656  0.000  0.344
    occupations:
  0.989  0.000  0.000
  0.000  0.989  0.000
  0.000  0.000  0.989
   spin  2
    eigenvalues: 
  0.988  0.988  0.989
    eigenvectors:
  0.500  0.173  0.327
  0.500  0.173  0.327
  0.000  0.654  0.346
    occupations:
  0.989  0.000  0.000
  0.000  0.989  0.000
  0.000  0.000  0.989
atomic mag. moment =    -0.000025
atom   15   Tr[ns(na)] (up, down, total) =   2.96581  2.96584  5.93165
   spin  1
    eigenvalues: 
  0.988  0.988  0.989
    eigenvectors:
  0.656  0.000  0.344
  0.172  0.500  0.328
  0.172  0.500  0.328
    occupations:
  0.989  0.000  0.000
  0.000  0.989  0.000
  0.000  0.000  0.989
   spin  2
    eigenvalues: 
  0.988  0.988  0.989
    eigenvectors:
  0.000  0.654  0.346
  0.500  0.173  0.327
  0.500  0.173  0.327
    occupations:
  0.989  0.000  0.000
  0.000  0.989  0.000
  0.000  0.000  0.989
atomic mag. moment =    -0.000025
atom   16   Tr[ns(na)] (up, down, total) =   2.96584  2.96579  5.93163
   spin  1
    eigenvalues: 
  0.988  0.988  0.989
    eigenvectors:
  0.445  0.222  0.333
  0.550  0.117  0.333
  0.006  0.661  0.333
    occupations:
  0.989  0.000  0.000
  0.000  0.989  0.000
  0.000  0.000  0.989
   spin  2
    eigenvalues: 
  0.988  0.988  0.989
    eigenvectors:
  0.403  0.264  0.333
  0.581  0.086  0.333
  0.016  0.650  0.333
    occupations:
  0.989  0.000  0.000
  0.000  0.989  0.000
  0.000  0.000  0.989
atomic mag. moment =     0.000053
N of occupied +U levels = 111.7682162
 --- exit write_ns ---

     total cpu time spent up to now is       42.6 secs

     total energy              =    -938.67535247 Ry
     Harris-Foulkes estimate   =    -942.62887936 Ry
     estimated scf accuracy    <      10.31046560 Ry

     total magnetization       =     0.00 Bohr mag/cell
     absolute magnetization    =    18.76 Bohr mag/cell

     iteration #  2     ecut=    30.00 Ry     beta=0.30
     Davidson diagonalization with overlap
     ethr =  8.06E-03,  avg # of iterations =  2.0

     total cpu time spent up to now is       68.5 secs

     total energy              =    -941.37249700 Ry
     Harris-Foulkes estimate   =    -941.32867494 Ry
     estimated scf accuracy    <       2.04744784 Ry

     total magnetization       =     0.00 Bohr mag/cell
     absolute magnetization    =    12.30 Bohr mag/cell

     iteration #  3     ecut=    30.00 Ry     beta=0.30
     Davidson diagonalization with overlap
     ethr =  1.60E-03,  avg # of iterations =  1.0

     negative rho (up, down):  0.110E-03 0.110E-03

     total cpu time spent up to now is       93.8 secs

     total energy              =    -941.93301552 Ry
     Harris-Foulkes estimate   =    -941.51007676 Ry
     estimated scf accuracy    <       0.67334389 Ry

     total magnetization       =     0.00 Bohr mag/cell
     absolute magnetization    =    13.40 Bohr mag/cell

     iteration #  4     ecut=    30.00 Ry     beta=0.30
     Davidson diagonalization with overlap
     ethr =  5.26E-04,  avg # of iterations =  1.8

     negative rho (up, down):  0.408E-04 0.409E-04

     total cpu time spent up to now is      119.2 secs

     total energy              =    -941.98008251 Ry
     Harris-Foulkes estimate   =    -941.97168028 Ry
     estimated scf accuracy    <       0.01900048 Ry

     total magnetization       =     0.00 Bohr mag/cell
     absolute magnetization    =    12.58 Bohr mag/cell

     iteration #  5     ecut=    30.00 Ry     beta=0.30
     Davidson diagonalization with overlap
     ethr =  1.48E-05,  avg # of iterations =  4.6

     total cpu time spent up to now is      145.6 secs

     total energy              =    -941.98969576 Ry
     Harris-Foulkes estimate   =    -941.98267544 Ry
     estimated scf accuracy    <       0.00253299 Ry

     total magnetization       =     0.00 Bohr mag/cell
     absolute magnetization    =    12.68 Bohr mag/cell

     iteration #  6     ecut=    30.00 Ry     beta=0.30
     Davidson diagonalization with overlap
     ethr =  1.98E-06,  avg # of iterations =  3.0

     total cpu time spent up to now is      171.3 secs

     total energy              =    -941.99321624 Ry
     Harris-Foulkes estimate   =    -941.98982921 Ry
     estimated scf accuracy    <       0.00081252 Ry

     total magnetization       =     0.00 Bohr mag/cell
     absolute magnetization    =    12.67 Bohr mag/cell

     iteration #  7     ecut=    30.00 Ry     beta=0.30
     Davidson diagonalization with overlap
     ethr =  6.35E-07,  avg # of iterations =  1.9

     total cpu time spent up to now is      196.6 secs

     total energy              =    -941.99483021 Ry
     Harris-Foulkes estimate   =    -941.99329532 Ry
     estimated scf accuracy    <       0.00012624 Ry

     total magnetization       =     0.00 Bohr mag/cell
     absolute magnetization    =    12.66 Bohr mag/cell

     iteration #  8     ecut=    30.00 Ry     beta=0.30
     Davidson diagonalization with overlap
     ethr =  9.86E-08,  avg # of iterations =  1.9

     total cpu time spent up to now is      222.1 secs

     total energy              =    -941.99554078 Ry
     Harris-Foulkes estimate   =    -941.99484218 Ry
     estimated scf accuracy    <       0.00001471 Ry

     total magnetization       =     0.00 Bohr mag/cell
     absolute magnetization    =    12.66 Bohr mag/cell

     iteration #  9     ecut=    30.00 Ry     beta=0.30
     Davidson diagonalization with overlap
     ethr =  1.15E-08,  avg # of iterations =  2.0

     total cpu time spent up to now is      247.8 secs

     total energy              =    -941.99587922 Ry
     Harris-Foulkes estimate   =    -941.99554406 Ry
     estimated scf accuracy    <       0.00000206 Ry

     total magnetization       =     0.00 Bohr mag/cell
     absolute magnetization    =    12.66 Bohr mag/cell

     iteration # 10     ecut=    30.00 Ry     beta=0.30
     Davidson diagonalization with overlap
     ethr =  1.61E-09,  avg # of iterations =  1.8

     total cpu time spent up to now is      273.3 secs

     total energy              =    -941.99604500 Ry
     Harris-Foulkes estimate   =    -941.99587942 Ry
     estimated scf accuracy    <       0.00000065 Ry

     total magnetization       =     0.00 Bohr mag/cell
     absolute magnetization    =    12.66 Bohr mag/cell

     iteration # 11     ecut=    30.00 Ry     beta=0.30
     Davidson diagonalization with overlap
     ethr =  5.07E-10,  avg # of iterations =  2.0

     total cpu time spent up to now is      299.0 secs

     total energy              =    -941.99612398 Ry
     Harris-Foulkes estimate   =    -941.99604509 Ry
     estimated scf accuracy    <       0.00000011 Ry

     total magnetization       =     0.00 Bohr mag/cell
     absolute magnetization    =    12.66 Bohr mag/cell

     iteration # 12     ecut=    30.00 Ry     beta=0.30
     Davidson diagonalization with overlap
     ethr =  8.35E-11,  avg # of iterations =  2.0

     total cpu time spent up to now is      324.6 secs

     total energy              =    -941.99616258 Ry
     Harris-Foulkes estimate   =    -941.99612400 Ry
     estimated scf accuracy    <       0.00000003 Ry

     total magnetization       =     0.00 Bohr mag/cell
     absolute magnetization    =    12.66 Bohr mag/cell

     iteration # 13     ecut=    30.00 Ry     beta=0.30
     Davidson diagonalization with overlap
     ethr =  2.19E-11,  avg # of iterations =  2.0

     total cpu time spent up to now is      350.0 secs

     End of self-consistent calculation
 --- enter write_ns ---
 LDA+U parameters:
U( 1)     =  0.00000000
alpha( 1) =  0.00000000
U( 2)     =  0.00000000
alpha( 2) =  0.00000000
U( 3)     =  0.00000000
alpha( 3) =  0.00000000
U( 4)     =  0.00000000
alpha( 4) =  0.00000000
atom    1   Tr[ns(na)] (up, down, total) =   4.96210  3.72838  8.69048
   spin  1
    eigenvalues: 
  0.985  0.985  0.997  0.997  0.997
    eigenvectors:
  1.000  0.000  0.000  0.000  0.000
  0.000  0.000  0.500  0.170  0.330
  0.000  0.000  0.500  0.170  0.330
  0.000  1.000  0.000  0.000  0.000
  0.000  0.000  0.000  0.660  0.339
    occupations:
  0.985  0.000  0.000  0.000  0.000
  0.000  0.997  0.000  0.000  0.000
  0.000  0.000  0.997  0.000  0.000
  0.000  0.000  0.000  0.985  0.000
  0.000  0.000  0.000  0.000  0.997
   spin  2
    eigenvalues: 
  0.370  0.370  0.996  0.996  0.996
    eigenvectors:
  0.000  1.000  0.000  0.000  0.000
  0.000  0.000  0.167  0.500  0.333
  0.000  0.000  0.167  0.500  0.333
  1.000  0.000  0.000  0.000  0.000
  0.000  0.000  0.667  0.000  0.333
    occupations:
  0.370  0.000  0.000  0.000  0.001
  0.000  0.996  0.000  0.001  0.000
  0.000  0.000  0.996 -0.001  0.000
  0.000  0.001 -0.001  0.370  0.000
  0.001  0.000  0.000  0.000  0.996
atomic mag. moment =     1.233727
atom    2   Tr[ns(na)] (up, down, total) =   4.96210  3.72838  8.69048
   spin  1
    eigenvalues: 
  0.985  0.985  0.997  0.997  0.997
    eigenvectors:
  0.250  0.750  0.000  0.000  0.000
  0.000  0.000  0.000  0.660  0.339
  0.000  0.000  0.500  0.170  0.330
  0.750  0.250  0.000  0.000  0.000
  0.000  0.000  0.500  0.170  0.330
    occupations:
  0.985  0.000  0.000  0.000  0.000
  0.000  0.997  0.000  0.000  0.000
  0.000  0.000  0.997  0.000  0.000
  0.000  0.000  0.000  0.985  0.000
  0.000  0.000  0.000  0.000  0.997
   spin  2
    eigenvalues: 
  0.370  0.370  0.996  0.996  0.996
    eigenvectors:
  0.750  0.250  0.000  0.000  0.000
  0.000  0.000  0.667  0.000  0.333
  0.000  0.000  0.167  0.500  0.333
  0.250  0.750  0.000  0.000  0.000
  0.000  0.000  0.167  0.500  0.333
    occupations:
  0.370  0.000  0.000  0.000  0.001
  0.000  0.996  0.000  0.001  0.000
  0.000  0.000  0.996 -0.001  0.000
  0.000  0.001 -0.001  0.370  0.000
  0.001  0.000  0.000  0.000  0.996
atomic mag. moment =     1.233727
atom    3   Tr[ns(na)] (up, down, total) =   4.96210  3.72838  8.69048
   spin  1
    eigenvalues: 
  0.985  0.985  0.997  0.997  0.997
    eigenvectors:
  0.250  0.750  0.000  0.000  0.000
  0.000  0.000  0.500  0.170  0.330
  0.000  0.000  0.000  0.660  0.339
  0.750  0.250  0.000  0.000  0.000
  0.000  0.000  0.500  0.170  0.330
    occupations:
  0.985  0.000  0.000  0.000  0.000
  0.000  0.997  0.000  0.000  0.000
  0.000  0.000  0.997  0.000  0.000
  0.000  0.000  0.000  0.985  0.000
  0.000  0.000  0.000  0.000  0.997
   spin  2
    eigenvalues: 
  0.370  0.370  0.996  0.996  0.996
    eigenvectors:
  0.750  0.250  0.000  0.000  0.000
  0.000  0.000  0.167  0.500  0.333
  0.000  0.000  0.667  0.000  0.333
  0.250  0.750  0.000  0.000  0.000
  0.000  0.000  0.167  0.500  0.333
    occupations:
  0.370  0.000  0.000  0.000  0.001
  0.000  0.996  0.000  0.001  0.000
  0.000  0.000  0.996 -0.001  0.000
  0.000  0.001 -0.001  0.370  0.000
  0.001  0.000  0.000  0.000  0.996
atomic mag. moment =     1.233727
atom    4   Tr[ns(na)] (up, down, total) =   4.96210  3.72838  8.69048
   spin  1
    eigenvalues: 
  0.985  0.985  0.997  0.997  0.997
    eigenvectors:
  0.407  0.592  0.000  0.000  0.000
  0.000  0.000  0.142  0.524  0.333
  0.000  0.000  0.192  0.474  0.333
  0.592  0.407  0.000  0.000  0.000
  0.000  0.000  0.665  0.001  0.333
    occupations:
  0.985  0.000  0.000  0.000  0.000
  0.000  0.997  0.000  0.000  0.000
  0.000  0.000  0.997  0.000  0.000
  0.000  0.000  0.000  0.985  0.000
  0.000  0.000  0.000  0.000  0.997
   spin  2
    eigenvalues: 
  0.370  0.370  0.996  0.996  0.996
    eigenvectors:
  0.334  0.666  0.000  0.000  0.000
  0.000  0.000  0.103  0.564  0.333
  0.000  0.000  0.240  0.426  0.333
  0.666  0.334  0.000  0.000  0.000
  0.000  0.000  0.657  0.010  0.333
    occupations:
  0.370  0.000  0.000  0.000  0.001
  0.000  0.996  0.000  0.001  0.000
  0.000  0.000  0.996 -0.001  0.000
  0.000  0.001 -0.001  0.370  0.000
  0.001  0.000  0.000  0.000  0.996
atomic mag. moment =     1.233726
atom    5   Tr[ns(na)] (up, down, total) =   3.72838  4.96211  8.69049
   spin  1
    eigenvalues: 
  0.370  0.370  0.996  0.996  0.996
    eigenvectors:
  0.107  0.893  0.000  0.000  0.000
  0.000  0.000  0.076  0.590  0.333
  0.000  0.000  0.278  0.389  0.333
  0.893  0.107  0.000  0.000  0.000
  0.000  0.000  0.646  0.021  0.333
    occupations:
  0.370  0.000  0.000  0.000  0.001
  0.000  0.996  0.000  0.001  0.000
  0.000  0.000  0.996 -0.001  0.000
  0.000  0.001 -0.001  0.370  0.000
  0.001  0.000  0.000  0.000  0.996
   spin  2
    eigenvalues: 
  0.985  0.985  0.997  0.997  0.997
    eigenvectors:
  0.372  0.628  0.000  0.000  0.000
  0.000  0.000  0.193  0.473  0.333
  0.000  0.000  0.142  0.525  0.333
  0.628  0.372  0.000  0.000  0.000
  0.000  0.000  0.665  0.001  0.333
    occupations:
  0.985  0.000  0.000  0.000  0.000
  0.000  0.997  0.000  0.000  0.000
  0.000  0.000  0.997  0.000  0.000
  0.000  0.000  0.000  0.985  0.000
  0.000  0.000  0.000  0.000  0.997
atomic mag. moment =    -1.233725
atom    6   Tr[ns(na)] (up, down, total) =   3.72838  4.96211  8.69049
   spin  1
    eigenvalues: 
  0.370  0.370  0.996  0.996  0.996
    eigenvectors:
  0.750  0.250  0.000  0.000  0.000
  0.000  0.000  0.500  0.167  0.333
  0.000  0.000  0.000  0.667  0.333
  0.250  0.750  0.000  0.000  0.000
  0.000  0.000  0.500  0.167  0.333
    occupations:
  0.370  0.000  0.000  0.000  0.001
  0.000  0.996  0.000  0.001  0.000
  0.000  0.000  0.996 -0.001  0.000
  0.000  0.001 -0.001  0.370  0.000
  0.001  0.000  0.000  0.000  0.996
   spin  2
    eigenvalues: 
  0.985  0.985  0.997  0.997  0.997
    eigenvectors:
  0.250  0.750  0.000  0.000  0.000
  0.000  0.000  0.500  0.166  0.334
  0.000  0.000  0.000  0.668  0.332
  0.750  0.250  0.000  0.000  0.000
  0.000  0.000  0.500  0.166  0.334
    occupations:
  0.985  0.000  0.000  0.000  0.000
  0.000  0.997  0.000  0.000  0.000
  0.000  0.000  0.997  0.000  0.000
  0.000  0.000  0.000  0.985  0.000
  0.000  0.000  0.000  0.000  0.997
atomic mag. moment =    -1.233723
atom    7   Tr[ns(na)] (up, down, total) =   3.72838  4.96211  8.69049
   spin  1
    eigenvalues: 
  0.370  0.370  0.996  0.996  0.996
    eigenvectors:
  0.750  0.250  0.000  0.000  0.000
  0.000  0.000  0.000  0.667  0.333
  0.000  0.000  0.500  0.167  0.333
  0.250  0.750  0.000  0.000  0.000
  0.000  0.000  0.500  0.167  0.333
    occupations:
  0.370  0.000  0.000  0.000  0.001
  0.000  0.996  0.000  0.001  0.000
  0.000  0.000  0.996 -0.001  0.000
  0.000  0.001 -0.001  0.370  0.000
  0.001  0.000  0.000  0.000  0.996
   spin  2
    eigenvalues: 
  0.985  0.985  0.997  0.997  0.997
    eigenvectors:
  0.250  0.750  0.000  0.000  0.000
  0.000  0.000  0.000  0.668  0.332
  0.000  0.000  0.500  0.166  0.334
  0.750  0.250  0.000  0.000  0.000
  0.000  0.000  0.500  0.166  0.334
    occupations:
  0.985  0.000  0.000  0.000  0.000
  0.000  0.997  0.000  0.000  0.000
  0.000  0.000  0.997  0.000  0.000
  0.000  0.000  0.000  0.985  0.000
  0.000  0.000  0.000  0.000  0.997
atomic mag. moment =    -1.233723
atom    8   Tr[ns(na)] (up, down, total) =   3.72838  4.96211  8.69049
   spin  1
    eigenvalues: 
  0.370  0.370  0.996  0.996  0.996
    eigenvectors:
  0.000  1.000  0.000  0.000  0.000
  0.000  0.000  0.500  0.167  0.333
  0.000  0.000  0.500  0.167  0.333
  1.000  0.000  0.000  0.000  0.000
  0.000  0.000  0.000  0.667  0.333
    occupations:
  0.370  0.000  0.000  0.000  0.001
  0.000  0.996  0.000  0.001  0.000
  0.000  0.000  0.996 -0.001  0.000
  0.000  0.001 -0.001  0.370  0.000
  0.001  0.000  0.000  0.000  0.996
   spin  2
    eigenvalues: 
  0.985  0.985  0.997  0.997  0.997
    eigenvectors:
  1.000  0.000  0.000  0.000  0.000
  0.000  0.000  0.500  0.166  0.334
  0.000  0.000  0.500  0.166  0.334
  0.000  1.000  0.000  0.000  0.000
  0.000  0.000  0.000  0.668  0.332
    occupations:
  0.985  0.000  0.000  0.000  0.000
  0.000  0.997  0.000  0.000  0.000
  0.000  0.000  0.997  0.000  0.000
  0.000  0.000  0.000  0.985  0.000
  0.000  0.000  0.000  0.000  0.997
atomic mag. moment =    -1.233723
atom    9   Tr[ns(na)] (up, down, total) =   2.81403  2.81403  5.62805
   spin  1
    eigenvalues: 
  0.938  0.938  0.938
    eigenvectors:
  0.397  0.270  0.333
  0.585  0.081  0.333
  0.018  0.648  0.333
    occupations:
  0.938  0.000  0.000
  0.000  0.938  0.000
  0.000  0.000  0.938
   spin  2
    eigenvalues: 
  0.938  0.938  0.938
    eigenvectors:
  0.454  0.212  0.333
  0.542  0.125  0.333
  0.004  0.663  0.333
    occupations:
  0.938  0.000  0.000
  0.000  0.938  0.000
  0.000  0.000  0.938
atomic mag. moment =    -0.000001
atom   10   Tr[ns(na)] (up, down, total) =   2.81402  2.81403  5.62805
   spin  1
    eigenvalues: 
  0.938  0.938  0.938
    eigenvectors:
  0.000  0.666  0.334
  0.500  0.167  0.333
  0.500  0.167  0.333
    occupations:
  0.938  0.000  0.000
  0.000  0.938  0.000
  0.000  0.000  0.938
   spin  2
    eigenvalues: 
  0.938  0.938  0.938
    eigenvectors:
  0.000  0.667  0.333
  0.500  0.166  0.334
  0.500  0.166  0.334
    occupations:
  0.938  0.000  0.000
  0.000  0.938  0.000
  0.000  0.000  0.938
atomic mag. moment =    -0.000001
atom   11   Tr[ns(na)] (up, down, total) =   2.81402  2.81403  5.62805
   spin  1
    eigenvalues: 
  0.938  0.938  0.938
    eigenvectors:
  0.500  0.167  0.333
  0.000  0.666  0.334
  0.500  0.167  0.333
    occupations:
  0.938  0.000  0.000
  0.000  0.938  0.000
  0.000  0.000  0.938
   spin  2
    eigenvalues: 
  0.938  0.938  0.938
    eigenvectors:
  0.500  0.166  0.334
  0.000  0.667  0.333
  0.500  0.166  0.334
    occupations:
  0.938  0.000  0.000
  0.000  0.938  0.000
  0.000  0.000  0.938
atomic mag. moment =    -0.000001
atom   12   Tr[ns(na)] (up, down, total) =   2.81402  2.81403  5.62805
   spin  1
    eigenvalues: 
  0.938  0.938  0.938
    eigenvectors:
  0.500  0.167  0.333
  0.500  0.167  0.333
  0.000  0.666  0.334
    occupations:
  0.938  0.000  0.000
  0.000  0.938  0.000
  0.000  0.000  0.938
   spin  2
    eigenvalues: 
  0.938  0.938  0.938
    eigenvectors:
  0.500  0.166  0.334
  0.500  0.166  0.334
  0.000  0.667  0.333
    occupations:
  0.938  0.000  0.000
  0.000  0.938  0.000
  0.000  0.000  0.938
atomic mag. moment =    -0.000001
atom   13   Tr[ns(na)] (up, down, total) =   2.81402  2.81402  5.62805
   spin  1
    eigenvalues: 
  0.938  0.938  0.938
    eigenvectors:
  0.167  0.500  0.333
  0.666  0.000  0.334
  0.167  0.500  0.333
    occupations:
  0.938  0.000  0.000
  0.000  0.938  0.000
  0.000  0.000  0.938
   spin  2
    eigenvalues: 
  0.938  0.938  0.938
    eigenvectors:
  0.166  0.500  0.334
  0.667  0.000  0.333
  0.166  0.500  0.334
    occupations:
  0.938  0.000  0.000
  0.000  0.938  0.000
  0.000  0.000  0.938
atomic mag. moment =    -0.000001
atom   14   Tr[ns(na)] (up, down, total) =   2.81402  2.81402  5.62805
   spin  1
    eigenvalues: 
  0.938  0.938  0.938
    eigenvectors:
  0.167  0.500  0.333
  0.167  0.500  0.333
  0.666  0.000  0.334
    occupations:
  0.938  0.000  0.000
  0.000  0.938  0.000
  0.000  0.000  0.938
   spin  2
    eigenvalues: 
  0.938  0.938  0.938
    eigenvectors:
  0.166  0.500  0.334
  0.166  0.500  0.334
  0.667  0.000  0.333
    occupations:
  0.938  0.000  0.000
  0.000  0.938  0.000
  0.000  0.000  0.938
atomic mag. moment =    -0.000001
atom   15   Tr[ns(na)] (up, down, total) =   2.81402  2.81402  5.62805
   spin  1
    eigenvalues: 
  0.938  0.938  0.938
    eigenvectors:
  0.666  0.000  0.334
  0.167  0.500  0.333
  0.167  0.500  0.333
    occupations:
  0.938  0.000  0.000
  0.000  0.938  0.000
  0.000  0.000  0.938
   spin  2
    eigenvalues: 
  0.938  0.938  0.938
    eigenvectors:
  0.667  0.000  0.333
  0.166  0.500  0.334
  0.166  0.500  0.334
    occupations:
  0.938  0.000  0.000
  0.000  0.938  0.000
  0.000  0.000  0.938
atomic mag. moment =    -0.000001
atom   16   Tr[ns(na)] (up, down, total) =   2.81402  2.81402  5.62804
   spin  1
    eigenvalues: 
  0.938  0.938  0.938
    eigenvectors:
  0.447  0.219  0.333
  0.548  0.119  0.333
  0.005  0.662  0.333
    occupations:
  0.938  0.000  0.000
  0.000  0.938  0.000
  0.000  0.000  0.938
   spin  2
    eigenvalues: 
  0.938  0.938  0.938
    eigenvectors:
  0.405  0.262  0.333
  0.580  0.087  0.333
  0.016  0.651  0.333
    occupations:
  0.938  0.000  0.000
  0.000  0.938  0.000
  0.000  0.000  0.938
atomic mag. moment =    -0.000001
N of occupied +U levels = 114.5482719
 --- exit write_ns ---

 ------ SPIN UP ------------


          k = 0.0000 0.0000 0.0000 (  2733 PWs)   bands (ev):

    -8.0408  -6.6434  -6.6433  -6.6433  -6.6433  -6.5753  -6.5753  -6.5753
     4.0453   4.0453   4.0453   4.0472   5.3547   5.3547   5.3547   6.5186
     6.5186   6.5297   6.5297   6.5297   6.5611   6.5611   6.5611   7.9923
     7.9923   7.9923   7.9935   7.9935   7.9935   8.7951   8.7951   8.7951
     9.3012   9.3012   9.3035   9.5098   9.5098   9.6525   9.8432   9.8432
     9.8908   9.8908   9.8908  10.1771  10.1771  10.1771  10.4483  10.4483
    10.4483  10.5574  10.5574  10.5574  10.8878  10.8878  11.0142  11.0142
    11.0142  11.1552  11.2402  11.2402  11.2402  11.3611  11.3611  11.3611
    13.5600  13.5600  13.6207  13.6207  13.6207  13.7062  13.7062  13.7062
    13.7714  17.8033  17.8051  17.8051  17.8051

          k = 0.2500-0.2500-0.2500 (  2764 PWs)   bands (ev):

    -7.4053  -7.4053  -6.6208  -6.6208  -6.6166  -6.6165  -6.6121  -6.6121
     5.0689   5.0689   5.0821   5.0821   5.0924   5.0924   6.1139   6.1139
     6.3285   6.3285   6.3946   6.3946   6.4720   6.4720   6.8452   6.8452
     7.0235   7.0235   7.3359   7.3359   7.4960   7.4960   7.6613   7.6613
     9.5867   9.5867   9.7785   9.7785   9.8503   9.8503   9.9793   9.9793
    10.1191  10.1191  10.1694  10.1694  10.4892  10.4892  10.6085  10.6085
    10.6393  10.6393  10.8362  10.8362  10.9364  10.9364  11.2186  11.2186
    11.2314  11.2314  11.2757  11.2757  11.3066  11.3066  11.4176  11.4176
    13.0582  13.0582  13.0625  13.0625  13.0698  13.0698  13.0824  13.0824
    16.5010  16.5010  19.6616  19.6616  19.7221

          k = 0.0000 0.0000-0.5000 (  2762 PWs)   bands (ev):

    -7.2680  -7.2680  -6.7714  -6.7714  -6.7713  -6.7713  -6.4669  -6.4669
     5.0306   5.0306   5.0414   5.0414   5.7849   5.7849   6.1217   6.1217
     6.1253   6.1253   6.4155   6.4155   6.6464   6.6464   6.6803   6.6803
     6.7395   6.7395   6.7463   6.7463   8.1732   8.1732   8.1832   8.1832
     9.2085   9.2085   9.8945   9.8945   9.9761   9.9761   9.9993   9.9993
    10.0147  10.0147  10.1273  10.1273  10.3156  10.3156  10.4480  10.4480
    10.4803  10.4803  10.5520  10.5520  10.8894  10.8894  10.9757  10.9757
    11.1284  11.1284  11.2117  11.2117  11.3110  11.3110  11.3260  11.3260
    12.4737  12.4737  12.7313  12.7313  13.5318  13.5318  13.6336  13.6336
    17.6875  17.6875  19.2701  19.2701  19.2705

          k =-0.2500-0.2500-0.2500 (  2764 PWs)   bands (ev):

    -7.4098  -7.4009  -6.6270  -6.6270  -6.6270  -6.6059  -6.6059  -6.6058
     5.0284   5.0284   5.0284   5.1342   5.1342   5.1342   6.0959   6.1362
     6.2604   6.2604   6.2604   6.7137   6.7137   6.7137   6.7417   6.7417
     6.7417   6.9614   6.9614   7.4785   7.4785   7.4785   7.8938   7.8938
     9.4413   9.4413   9.4413   9.6215   9.6215  10.0651  10.0651  10.0651
    10.0806  10.4308  10.4308  10.4308  10.4628  10.4628  10.4628  10.7042
    10.7042  10.8016  10.8016  10.8016  10.8523  11.0304  11.0304  11.0304
    11.2203  11.2203  11.2203  11.2884  11.2884  11.3797  11.3797  11.3797
    13.0577  13.0577  13.0577  13.0776  13.0776  13.0878  13.0878  13.0878
    16.4241  16.5807  19.6400  19.6400  19.6400

 ------ SPIN DOWN ----------


          k = 0.0000 0.0000 0.0000 (  2733 PWs)   bands (ev):

    -8.0408  -6.6434  -6.6433  -6.6433  -6.6433  -6.5753  -6.5753  -6.5753
     4.0453   4.0453   4.0453   4.0472   5.3547   5.3547   5.3547   6.5186
     6.5186   6.5297   6.5297   6.5297   6.5611   6.5611   6.5611   7.9923
     7.9923   7.9923   7.9935   7.9935   7.9935   8.7951   8.7951   8.7951
     9.3012   9.3012   9.3035   9.5098   9.5098   9.6525   9.8432   9.8432
     9.8908   9.8908   9.8908  10.1771  10.1771  10.1771  10.4482  10.4483
    10.4483  10.5573  10.5573  10.5573  10.8878  10.8878  11.0142  11.0142
    11.0142  11.1552  11.2402  11.2402  11.2402  11.3611  11.3611  11.3611
    13.5601  13.5601  13.6207  13.6207  13.6207  13.7062  13.7062  13.7062
    13.7714  17.8033  17.8051  17.8051  17.8051

          k = 0.2500-0.2500-0.2500 (  2764 PWs)   bands (ev):

    -7.4053  -7.4053  -6.6208  -6.6208  -6.6165  -6.6165  -6.6121  -6.6121
     5.0689   5.0689   5.0821   5.0821   5.0924   5.0924   6.1139   6.1139
     6.3285   6.3285   6.3946   6.3946   6.4720   6.4720   6.8452   6.8452
     7.0235   7.0235   7.3359   7.3359   7.4960   7.4960   7.6613   7.6613
     9.5867   9.5867   9.7785   9.7785   9.8503   9.8503   9.9793   9.9793
    10.1191  10.1191  10.1693  10.1693  10.4892  10.4892  10.6085  10.6085
    10.6393  10.6393  10.8362  10.8362  10.9364  10.9364  11.2186  11.2186
    11.2314  11.2314  11.2757  11.2757  11.3066  11.3066  11.4176  11.4176
    13.0582  13.0582  13.0625  13.0625  13.0698  13.0698  13.0825  13.0825
    16.5010  16.5010  19.6616  19.6616  19.7221

          k = 0.0000 0.0000-0.5000 (  2762 PWs)   bands (ev):

    -7.2680  -7.2680  -6.7714  -6.7714  -6.7713  -6.7713  -6.4669  -6.4669
     5.0306   5.0306   5.0414   5.0414   5.7849   5.7849   6.1217   6.1217
     6.1253   6.1253   6.4155   6.4155   6.6464   6.6464   6.6803   6.6803
     6.7395   6.7395   6.7463   6.7463   8.1732   8.1732   8.1832   8.1832
     9.2084   9.2084   9.8945   9.8945   9.9761   9.9761   9.9993   9.9993
    10.0147  10.0147  10.1272  10.1272  10.3156  10.3156  10.4480  10.4480
    10.4803  10.4803  10.5519  10.5520  10.8894  10.8894  10.9758  10.9758
    11.1285  11.1285  11.2117  11.2117  11.3110  11.3110  11.3260  11.3260
    12.4738  12.4738  12.7313  12.7313  13.5318  13.5318  13.6336  13.6336
    17.6875  17.6875  19.2701  19.2701  19.2705

          k =-0.2500-0.2500-0.2500 (  2764 PWs)   bands (ev):

    -7.4098  -7.4009  -6.6270  -6.6270  -6.6270  -6.6058  -6.6058  -6.6058
     5.0284   5.0284   5.0284   5.1342   5.1342   5.1342   6.0958   6.1362
     6.2604   6.2604   6.2604   6.7137   6.7137   6.7137   6.7417   6.7417
     6.7417   6.9614   6.9614   7.4785   7.4785   7.4785   7.8938   7.8938
     9.4413   9.4413   9.4413   9.6215   9.6215  10.0651  10.0651  10.0651
    10.0806  10.4308  10.4308  10.4308  10.4627  10.4627  10.4627  10.7042
    10.7042  10.8016  10.8016  10.8016  10.8523  11.0304  11.0304  11.0304
    11.2203  11.2203  11.2203  11.2883  11.2883  11.3797  11.3797  11.3797
    13.0577  13.0577  13.0577  13.0776  13.0776  13.0878  13.0878  13.0878
    16.4241  16.5807  19.6400  19.6400  19.6400

     the Fermi energy is    11.9462 ev

!    total energy              =    -941.99619924 Ry
     Harris-Foulkes estimate   =    -941.99616258 Ry
     estimated scf accuracy    <          7.2E-09 Ry

     The total energy is the sum of the following terms:

     one-electron contribution =     -56.24626068 Ry
     hartree contribution      =     175.69573057 Ry
     xc contribution           =    -297.58826329 Ry
     ewald contribution        =    -763.85740583 Ry
     Hubbard energy            =       0.00000000 Ry
     smearing contrib. (-TS)   =       0.00000000 Ry

     total magnetization       =     0.00 Bohr mag/cell
     absolute magnetization    =    12.66 Bohr mag/cell

     convergence has been achieved in  13 iterations

     Writing output data file nio.save
 
     init_run     :     14.70s CPU     15.91s WALL (       1 calls)
     electrons    :    316.53s CPU    333.94s WALL (       1 calls)

     Called by init_run:
     wfcinit      :      1.67s CPU      1.82s WALL (       1 calls)
     potinit      :      1.19s CPU      1.42s WALL (       1 calls)

     Called by electrons:
     c_bands      :     47.74s CPU     50.78s WALL (      13 calls)
     sum_band     :    132.50s CPU    135.02s WALL (      13 calls)
     v_of_rho     :     13.01s CPU     14.81s WALL (      14 calls)
     newd         :    128.13s CPU    138.37s WALL (      14 calls)
     mix_rho      :      2.30s CPU      2.50s WALL (      13 calls)

     Called by c_bands:
     init_us_2    :      0.59s CPU      0.63s WALL (      56 calls)
     cegterg      :     45.87s CPU     48.52s WALL (      26 calls)

     Called by *egterg:
     h_psi        :     36.67s CPU     38.05s WALL (      91 calls)
     s_psi        :      2.74s CPU      2.76s WALL (      93 calls)
     g_psi        :      0.14s CPU      0.14s WALL (      63 calls)
     cdiaghg      :      1.94s CPU      1.93s WALL (      89 calls)

     Called by h_psi:
     add_vuspsi   :      2.69s CPU      2.68s WALL (      91 calls)

     General routines
     calbec       :      4.82s CPU      4.81s WALL (     236 calls)
     fft          :     11.76s CPU     13.33s WALL (     424 calls)
     ffts         :      0.14s CPU      0.18s WALL (      54 calls)
     fftw         :     20.63s CPU     22.65s WALL (   11072 calls)
     interpolate  :      1.92s CPU      2.54s WALL (      54 calls)
     davcio       :      0.00s CPU      0.85s WALL (     164 calls)
 
     Parallel routines
     fft_scatter  :      6.19s CPU      7.32s WALL (   11550 calls)
     EXX routines
 
     PWSCF        :  5m31.55s CPU     5m50.30s WALL

 
   This run was terminated on:  12:14:10  17Jun2012            

=------------------------------------------------------------------------------=
   JOB DONE.
=------------------------------------------------------------------------------=
