
     Program PWSCF v.5.0        starts on 17Jun2012 at 11:46:35 

     This program is part of the open-source Quantum ESPRESSO suite
     for quantum simulation of materials; please cite
         "P. Giannozzi et al., J. Phys.:Condens. Matter 21 395502 (2009);
          URL http://www.quantum-espresso.org", 
     in publications or presentations arising from this work. More details at
     http://www.quantum-espresso.org/quote.php

     Parallel version (MPI), running on     4 processors
     K-points division:     npool     =    4

     Current dimensions of program PWSCF are:
     Max number of different atomic species (ntypx) = 10
     Max number of k-points (npk) =  40000
     Max angular momentum in pseudopotentials (lmaxx) =  3
     Waiting for input...
     Reading input from standard input
               file Ni.pbe-nd-rrkjus.UPF: wavefunction(s)  4S renormalized
               file Ni.pbe-nd-rrkjus.UPF: wavefunction(s)  4S renormalized
               file Ni.pbe-nd-rrkjus.UPF: wavefunction(s)  4S renormalized
               file O.pbe-rrkjus.UPF: wavefunction(s)  2S renormalized

     Subspace diagonalization in iterative solution of the eigenvalue problem:
     a serial algorithm will be used

 
     G-vector sticks info
     --------------------
     sticks:   dense  smooth     PW     G-vecs:    dense   smooth      PW
     Sum        2587    1039    295                86547    22075    3287
 


     bravais-lattice index     =            0
     lattice parameter (alat)  =       7.9000  a.u.
     unit-cell volume          =     986.0780 (a.u.)^3
     number of atoms/cell      =           16
     number of atomic types    =            4
     number of electrons       =       128.00
     number of Kohn-Sham states=           77
     kinetic-energy cutoff     =      30.0000  Ry
     charge density cutoff     =     300.0000  Ry
     convergence threshold     =      1.0E-08
     mixing beta               =       0.3000
     number of iterations used =            8  plain     mixing
     Exchange-correlation      =  SLA  PW   PBE  PBE ( 1 4 3 4 0)
     EXX-fraction              =        0.00

     celldm(1)=   7.900000  celldm(2)=   0.000000  celldm(3)=   0.000000
     celldm(4)=   0.000000  celldm(5)=   0.000000  celldm(6)=   0.000000

     crystal axes: (cart. coord. in units of alat)
               a(1) = (   1.000000   1.000000   0.000000 )  
               a(2) = (   1.000000   0.000000   1.000000 )  
               a(3) = (   0.000000   1.000000   1.000000 )  

     reciprocal axes: (cart. coord. in units 2 pi/alat)
               b(1) = (  0.500000  0.500000 -0.500000 )  
               b(2) = (  0.500000 -0.500000  0.500000 )  
               b(3) = ( -0.500000  0.500000  0.500000 )  


     PseudoPot. # 1 for Ni read from file:
     ../pseudo/Ni.pbe-nd-rrkjus.UPF
     MD5 check sum: 8081f0a005c9a5470caab1a58e82ecb2
     Pseudo is Ultrasoft + core correction, Zval = 10.0
     Generated by new atomic code, or converted to UPF format
     Using radial grid of 1203 points,  6 beta functions with: 
                l(1) =   0
                l(2) =   0
                l(3) =   1
                l(4) =   1
                l(5) =   2
                l(6) =   2
     Q(r) pseudized with 0 coefficients 


     PseudoPot. # 2 for Ni read from file:
     ../pseudo/Ni.pbe-nd-rrkjus.UPF
     MD5 check sum: 8081f0a005c9a5470caab1a58e82ecb2
     Pseudo is Ultrasoft + core correction, Zval = 10.0
     Generated by new atomic code, or converted to UPF format
     Using radial grid of 1203 points,  6 beta functions with: 
                l(1) =   0
                l(2) =   0
                l(3) =   1
                l(4) =   1
                l(5) =   2
                l(6) =   2
     Q(r) pseudized with 0 coefficients 


     PseudoPot. # 3 for Ni read from file:
     ../pseudo/Ni.pbe-nd-rrkjus.UPF
     MD5 check sum: 8081f0a005c9a5470caab1a58e82ecb2
     Pseudo is Ultrasoft + core correction, Zval = 10.0
     Generated by new atomic code, or converted to UPF format
     Using radial grid of 1203 points,  6 beta functions with: 
                l(1) =   0
                l(2) =   0
                l(3) =   1
                l(4) =   1
                l(5) =   2
                l(6) =   2
     Q(r) pseudized with 0 coefficients 


     PseudoPot. # 4 for O  read from file:
     ../pseudo/O.pbe-rrkjus.UPF
     MD5 check sum: 390ba29e75625707450f3bd3f0eb6be9
     Pseudo is Ultrasoft, Zval =  6.0
     Generated by new atomic code, or converted to UPF format
     Using radial grid of 1269 points,  4 beta functions with: 
                l(1) =   0
                l(2) =   0
                l(3) =   1
                l(4) =   1
     Q(r) pseudized with 0 coefficients 


     atomic species   valence    mass     pseudopotential
        Ni1           10.00     1.00000     Ni( 1.00)
        Ni2           10.00     1.00000     Ni( 1.00)
        Ni3           10.00     1.00000     Ni( 1.00)
        O1             6.00     1.00000     O ( 1.00)

     Starting magnetic structure 
     atomic species   magnetization
        Ni1          0.500
        Ni2          0.500
        Ni3         -0.500
        O1           0.000
 -----
     simplified LDA+U calculation, Hubbard_lmax = 2
     atomic species  L   Hubbard U  Hubbard alpha
        Ni1          2    0.000000    0.000000
        Ni2          2    0.000000    0.000000
        Ni3          2    0.000000    0.000000
        O1           1    0.000000    0.000000
 -----

     12 Sym. Ops., with inversion, found



   Cartesian axes

     site n.     atom                  positions (alat units)
         1           Ni1 tau(   1) = (   0.0000000   0.0000000   0.0000000  )
         2           Ni2 tau(   2) = (   1.0000000   0.5000000   0.5000000  )
         3           Ni2 tau(   3) = (   0.5000000   1.0000000   0.5000000  )
         4           Ni2 tau(   4) = (   0.5000000   0.5000000   1.0000000  )
         5           Ni3 tau(   5) = (   0.5000000   0.5000000   0.0000000  )
         6           Ni3 tau(   6) = (   0.5000000   0.0000000   0.5000000  )
         7           Ni3 tau(   7) = (   0.0000000   0.5000000   0.5000000  )
         8           Ni3 tau(   8) = (   1.0000000   1.0000000   1.0000000  )
         9           O1  tau(   9) = (   0.0000000   0.0000000   0.5000000  )
        10           O1  tau(  10) = (   0.5000000   0.5000000   0.5000000  )
        11           O1  tau(  11) = (   0.0000000   0.5000000   1.0000000  )
        12           O1  tau(  12) = (   0.5000000   0.0000000   1.0000000  )
        13           O1  tau(  13) = (   1.0000000   0.5000000   1.0000000  )
        14           O1  tau(  14) = (   0.5000000   1.0000000   1.0000000  )
        15           O1  tau(  15) = (   0.5000000   0.5000000   1.5000000  )
        16           O1  tau(  16) = (   1.0000000   1.0000000   1.5000000  )

     number of k points=     8  gaussian smearing, width (Ry)=  0.0100
                       cart. coord. in units 2pi/alat
        k(    1) = (   0.0000000   0.0000000   0.0000000), wk =   0.1250000
        k(    2) = (   0.2500000  -0.2500000  -0.2500000), wk =   0.3750000
        k(    3) = (   0.0000000   0.0000000  -0.5000000), wk =   0.3750000
        k(    4) = (  -0.2500000  -0.2500000  -0.2500000), wk =   0.1250000
        k(    5) = (   0.0000000   0.0000000   0.0000000), wk =   0.1250000
        k(    6) = (   0.2500000  -0.2500000  -0.2500000), wk =   0.3750000
        k(    7) = (   0.0000000   0.0000000  -0.5000000), wk =   0.3750000
        k(    8) = (  -0.2500000  -0.2500000  -0.2500000), wk =   0.1250000

     Dense  grid:    86547 G-vectors     FFT dimensions: (  64,  64,  64)

     Smooth grid:    22075 G-vectors     FFT dimensions: (  40,  40,  40)

     Largest allocated arrays     est. size (Mb)     dimensions
        Kohn-Sham Wavefunctions         3.25 Mb     (   2764,   77)
        Atomic wavefunctions            3.37 Mb     (   2764,   80)
        NL pseudopotentials             8.77 Mb     (   2764,  208)
        Each V/rho on FFT grid          8.00 Mb     ( 262144,   2)
        Each G-vector array             0.66 Mb     (  86547)
        G-vector shells                 0.00 Mb     (    635)
     Largest temporary arrays     est. size (Mb)     dimensions
        Auxiliary wavefunctions        12.99 Mb     (   2764,  308)
        Each subspace H/S matrix        1.45 Mb     ( 308, 308)
        Each <psi_i|beta_j> matrix      0.24 Mb     (    208,   77)
        Arrays for rho mixing          32.00 Mb     ( 262144,   8)

     Check: negative/imaginary core charge=   -0.000047    0.000000

     Initial potential from superposition of free atoms

     starting charge  127.99632, renormalised to  128.00000
     Number of +U iterations with fixed ns =  0
     Starting occupations:
 --- enter write_ns ---
 LDA+U parameters:
U( 1)     =  0.00000000
alpha( 1) =  0.00000000
U( 2)     =  0.00000000
alpha( 2) =  0.00000000
U( 3)     =  0.00000000
alpha( 3) =  0.00000000
U( 4)     =  0.00000000
alpha( 4) =  0.00000000
atom    1   Tr[ns(na)] (up, down, total) =   5.00000  3.00000  8.00000
   spin  1
    eigenvalues: 
  1.000  1.000  1.000  1.000  1.000
    eigenvectors:
  1.000  0.000  0.000  0.000  0.000
  0.000  1.000  0.000  0.000  0.000
  0.000  0.000  1.000  0.000  0.000
  0.000  0.000  0.000  1.000  0.000
  0.000  0.000  0.000  0.000  1.000
    occupations:
  1.000  0.000  0.000  0.000  0.000
  0.000  1.000  0.000  0.000  0.000
  0.000  0.000  1.000  0.000  0.000
  0.000  0.000  0.000  1.000  0.000
  0.000  0.000  0.000  0.000  1.000
   spin  2
    eigenvalues: 
  0.600  0.600  0.600  0.600  0.600
    eigenvectors:
  1.000  0.000  0.000  0.000  0.000
  0.000  1.000  0.000  0.000  0.000
  0.000  0.000  1.000  0.000  0.000
  0.000  0.000  0.000  1.000  0.000
  0.000  0.000  0.000  0.000  1.000
    occupations:
  0.600  0.000  0.000  0.000  0.000
  0.000  0.600  0.000  0.000  0.000
  0.000  0.000  0.600  0.000  0.000
  0.000  0.000  0.000  0.600  0.000
  0.000  0.000  0.000  0.000  0.600
atomic mag. moment =     2.000000
atom    2   Tr[ns(na)] (up, down, total) =   5.00000  3.00000  8.00000
   spin  1
    eigenvalues: 
  1.000  1.000  1.000  1.000  1.000
    eigenvectors:
  1.000  0.000  0.000  0.000  0.000
  0.000  1.000  0.000  0.000  0.000
  0.000  0.000  1.000  0.000  0.000
  0.000  0.000  0.000  1.000  0.000
  0.000  0.000  0.000  0.000  1.000
    occupations:
  1.000  0.000  0.000  0.000  0.000
  0.000  1.000  0.000  0.000  0.000
  0.000  0.000  1.000  0.000  0.000
  0.000  0.000  0.000  1.000  0.000
  0.000  0.000  0.000  0.000  1.000
   spin  2
    eigenvalues: 
  0.600  0.600  0.600  0.600  0.600
    eigenvectors:
  1.000  0.000  0.000  0.000  0.000
  0.000  1.000  0.000  0.000  0.000
  0.000  0.000  1.000  0.000  0.000
  0.000  0.000  0.000  1.000  0.000
  0.000  0.000  0.000  0.000  1.000
    occupations:
  0.600  0.000  0.000  0.000  0.000
  0.000  0.600  0.000  0.000  0.000
  0.000  0.000  0.600  0.000  0.000
  0.000  0.000  0.000  0.600  0.000
  0.000  0.000  0.000  0.000  0.600
atomic mag. moment =     2.000000
atom    3   Tr[ns(na)] (up, down, total) =   5.00000  3.00000  8.00000
   spin  1
    eigenvalues: 
  1.000  1.000  1.000  1.000  1.000
    eigenvectors:
  1.000  0.000  0.000  0.000  0.000
  0.000  1.000  0.000  0.000  0.000
  0.000  0.000  1.000  0.000  0.000
  0.000  0.000  0.000  1.000  0.000
  0.000  0.000  0.000  0.000  1.000
    occupations:
  1.000  0.000  0.000  0.000  0.000
  0.000  1.000  0.000  0.000  0.000
  0.000  0.000  1.000  0.000  0.000
  0.000  0.000  0.000  1.000  0.000
  0.000  0.000  0.000  0.000  1.000
   spin  2
    eigenvalues: 
  0.600  0.600  0.600  0.600  0.600
    eigenvectors:
  1.000  0.000  0.000  0.000  0.000
  0.000  1.000  0.000  0.000  0.000
  0.000  0.000  1.000  0.000  0.000
  0.000  0.000  0.000  1.000  0.000
  0.000  0.000  0.000  0.000  1.000
    occupations:
  0.600  0.000  0.000  0.000  0.000
  0.000  0.600  0.000  0.000  0.000
  0.000  0.000  0.600  0.000  0.000
  0.000  0.000  0.000  0.600  0.000
  0.000  0.000  0.000  0.000  0.600
atomic mag. moment =     2.000000
atom    4   Tr[ns(na)] (up, down, total) =   5.00000  3.00000  8.00000
   spin  1
    eigenvalues: 
  1.000  1.000  1.000  1.000  1.000
    eigenvectors:
  1.000  0.000  0.000  0.000  0.000
  0.000  1.000  0.000  0.000  0.000
  0.000  0.000  1.000  0.000  0.000
  0.000  0.000  0.000  1.000  0.000
  0.000  0.000  0.000  0.000  1.000
    occupations:
  1.000  0.000  0.000  0.000  0.000
  0.000  1.000  0.000  0.000  0.000
  0.000  0.000  1.000  0.000  0.000
  0.000  0.000  0.000  1.000  0.000
  0.000  0.000  0.000  0.000  1.000
   spin  2
    eigenvalues: 
  0.600  0.600  0.600  0.600  0.600
    eigenvectors:
  1.000  0.000  0.000  0.000  0.000
  0.000  1.000  0.000  0.000  0.000
  0.000  0.000  1.000  0.000  0.000
  0.000  0.000  0.000  1.000  0.000
  0.000  0.000  0.000  0.000  1.000
    occupations:
  0.600  0.000  0.000  0.000  0.000
  0.000  0.600  0.000  0.000  0.000
  0.000  0.000  0.600  0.000  0.000
  0.000  0.000  0.000  0.600  0.000
  0.000  0.000  0.000  0.000  0.600
atomic mag. moment =     2.000000
atom    5   Tr[ns(na)] (up, down, total) =   3.00000  5.00000  8.00000
   spin  1
    eigenvalues: 
  0.600  0.600  0.600  0.600  0.600
    eigenvectors:
  1.000  0.000  0.000  0.000  0.000
  0.000  1.000  0.000  0.000  0.000
  0.000  0.000  1.000  0.000  0.000
  0.000  0.000  0.000  1.000  0.000
  0.000  0.000  0.000  0.000  1.000
    occupations:
  0.600  0.000  0.000  0.000  0.000
  0.000  0.600  0.000  0.000  0.000
  0.000  0.000  0.600  0.000  0.000
  0.000  0.000  0.000  0.600  0.000
  0.000  0.000  0.000  0.000  0.600
   spin  2
    eigenvalues: 
  1.000  1.000  1.000  1.000  1.000
    eigenvectors:
  1.000  0.000  0.000  0.000  0.000
  0.000  1.000  0.000  0.000  0.000
  0.000  0.000  1.000  0.000  0.000
  0.000  0.000  0.000  1.000  0.000
  0.000  0.000  0.000  0.000  1.000
    occupations:
  1.000  0.000  0.000  0.000  0.000
  0.000  1.000  0.000  0.000  0.000
  0.000  0.000  1.000  0.000  0.000
  0.000  0.000  0.000  1.000  0.000
  0.000  0.000  0.000  0.000  1.000
atomic mag. moment =    -2.000000
atom    6   Tr[ns(na)] (up, down, total) =   3.00000  5.00000  8.00000
   spin  1
    eigenvalues: 
  0.600  0.600  0.600  0.600  0.600
    eigenvectors:
  1.000  0.000  0.000  0.000  0.000
  0.000  1.000  0.000  0.000  0.000
  0.000  0.000  1.000  0.000  0.000
  0.000  0.000  0.000  1.000  0.000
  0.000  0.000  0.000  0.000  1.000
    occupations:
  0.600  0.000  0.000  0.000  0.000
  0.000  0.600  0.000  0.000  0.000
  0.000  0.000  0.600  0.000  0.000
  0.000  0.000  0.000  0.600  0.000
  0.000  0.000  0.000  0.000  0.600
   spin  2
    eigenvalues: 
  1.000  1.000  1.000  1.000  1.000
    eigenvectors:
  1.000  0.000  0.000  0.000  0.000
  0.000  1.000  0.000  0.000  0.000
  0.000  0.000  1.000  0.000  0.000
  0.000  0.000  0.000  1.000  0.000
  0.000  0.000  0.000  0.000  1.000
    occupations:
  1.000  0.000  0.000  0.000  0.000
  0.000  1.000  0.000  0.000  0.000
  0.000  0.000  1.000  0.000  0.000
  0.000  0.000  0.000  1.000  0.000
  0.000  0.000  0.000  0.000  1.000
atomic mag. moment =    -2.000000
atom    7   Tr[ns(na)] (up, down, total) =   3.00000  5.00000  8.00000
   spin  1
    eigenvalues: 
  0.600  0.600  0.600  0.600  0.600
    eigenvectors:
  1.000  0.000  0.000  0.000  0.000
  0.000  1.000  0.000  0.000  0.000
  0.000  0.000  1.000  0.000  0.000
  0.000  0.000  0.000  1.000  0.000
  0.000  0.000  0.000  0.000  1.000
    occupations:
  0.600  0.000  0.000  0.000  0.000
  0.000  0.600  0.000  0.000  0.000
  0.000  0.000  0.600  0.000  0.000
  0.000  0.000  0.000  0.600  0.000
  0.000  0.000  0.000  0.000  0.600
   spin  2
    eigenvalues: 
  1.000  1.000  1.000  1.000  1.000
    eigenvectors:
  1.000  0.000  0.000  0.000  0.000
  0.000  1.000  0.000  0.000  0.000
  0.000  0.000  1.000  0.000  0.000
  0.000  0.000  0.000  1.000  0.000
  0.000  0.000  0.000  0.000  1.000
    occupations:
  1.000  0.000  0.000  0.000  0.000
  0.000  1.000  0.000  0.000  0.000
  0.000  0.000  1.000  0.000  0.000
  0.000  0.000  0.000  1.000  0.000
  0.000  0.000  0.000  0.000  1.000
atomic mag. moment =    -2.000000
atom    8   Tr[ns(na)] (up, down, total) =   3.00000  5.00000  8.00000
   spin  1
    eigenvalues: 
  0.600  0.600  0.600  0.600  0.600
    eigenvectors:
  1.000  0.000  0.000  0.000  0.000
  0.000  1.000  0.000  0.000  0.000
  0.000  0.000  1.000  0.000  0.000
  0.000  0.000  0.000  1.000  0.000
  0.000  0.000  0.000  0.000  1.000
    occupations:
  0.600  0.000  0.000  0.000  0.000
  0.000  0.600  0.000  0.000  0.000
  0.000  0.000  0.600  0.000  0.000
  0.000  0.000  0.000  0.600  0.000
  0.000  0.000  0.000  0.000  0.600
   spin  2
    eigenvalues: 
  1.000  1.000  1.000  1.000  1.000
    eigenvectors:
  1.000  0.000  0.000  0.000  0.000
  0.000  1.000  0.000  0.000  0.000
  0.000  0.000  1.000  0.000  0.000
  0.000  0.000  0.000  1.000  0.000
  0.000  0.000  0.000  0.000  1.000
    occupations:
  1.000  0.000  0.000  0.000  0.000
  0.000  1.000  0.000  0.000  0.000
  0.000  0.000  1.000  0.000  0.000
  0.000  0.000  0.000  1.000  0.000
  0.000  0.000  0.000  0.000  1.000
atomic mag. moment =    -2.000000
atom    9   Tr[ns(na)] (up, down, total) =   2.00000  2.00000  4.00000
   spin  1
    eigenvalues: 
  0.667  0.667  0.667
    eigenvectors:
  1.000  0.000  0.000
  0.000  1.000  0.000
  0.000  0.000  1.000
    occupations:
  0.667  0.000  0.000
  0.000  0.667  0.000
  0.000  0.000  0.667
   spin  2
    eigenvalues: 
  0.667  0.667  0.667
    eigenvectors:
  1.000  0.000  0.000
  0.000  1.000  0.000
  0.000  0.000  1.000
    occupations:
  0.667  0.000  0.000
  0.000  0.667  0.000
  0.000  0.000  0.667
atomic mag. moment =     0.000000
atom   10   Tr[ns(na)] (up, down, total) =   2.00000  2.00000  4.00000
   spin  1
    eigenvalues: 
  0.667  0.667  0.667
    eigenvectors:
  1.000  0.000  0.000
  0.000  1.000  0.000
  0.000  0.000  1.000
    occupations:
  0.667  0.000  0.000
  0.000  0.667  0.000
  0.000  0.000  0.667
   spin  2
    eigenvalues: 
  0.667  0.667  0.667
    eigenvectors:
  1.000  0.000  0.000
  0.000  1.000  0.000
  0.000  0.000  1.000
    occupations:
  0.667  0.000  0.000
  0.000  0.667  0.000
  0.000  0.000  0.667
atomic mag. moment =     0.000000
atom   11   Tr[ns(na)] (up, down, total) =   2.00000  2.00000  4.00000
   spin  1
    eigenvalues: 
  0.667  0.667  0.667
    eigenvectors:
  1.000  0.000  0.000
  0.000  1.000  0.000
  0.000  0.000  1.000
    occupations:
  0.667  0.000  0.000
  0.000  0.667  0.000
  0.000  0.000  0.667
   spin  2
    eigenvalues: 
  0.667  0.667  0.667
    eigenvectors:
  1.000  0.000  0.000
  0.000  1.000  0.000
  0.000  0.000  1.000
    occupations:
  0.667  0.000  0.000
  0.000  0.667  0.000
  0.000  0.000  0.667
atomic mag. moment =     0.000000
atom   12   Tr[ns(na)] (up, down, total) =   2.00000  2.00000  4.00000
   spin  1
    eigenvalues: 
  0.667  0.667  0.667
    eigenvectors:
  1.000  0.000  0.000
  0.000  1.000  0.000
  0.000  0.000  1.000
    occupations:
  0.667  0.000  0.000
  0.000  0.667  0.000
  0.000  0.000  0.667
   spin  2
    eigenvalues: 
  0.667  0.667  0.667
    eigenvectors:
  1.000  0.000  0.000
  0.000  1.000  0.000
  0.000  0.000  1.000
    occupations:
  0.667  0.000  0.000
  0.000  0.667  0.000
  0.000  0.000  0.667
atomic mag. moment =     0.000000
atom   13   Tr[ns(na)] (up, down, total) =   2.00000  2.00000  4.00000
   spin  1
    eigenvalues: 
  0.667  0.667  0.667
    eigenvectors:
  1.000  0.000  0.000
  0.000  1.000  0.000
  0.000  0.000  1.000
    occupations:
  0.667  0.000  0.000
  0.000  0.667  0.000
  0.000  0.000  0.667
   spin  2
    eigenvalues: 
  0.667  0.667  0.667
    eigenvectors:
  1.000  0.000  0.000
  0.000  1.000  0.000
  0.000  0.000  1.000
    occupations:
  0.667  0.000  0.000
  0.000  0.667  0.000
  0.000  0.000  0.667
atomic mag. moment =     0.000000
atom   14   Tr[ns(na)] (up, down, total) =   2.00000  2.00000  4.00000
   spin  1
    eigenvalues: 
  0.667  0.667  0.667
    eigenvectors:
  1.000  0.000  0.000
  0.000  1.000  0.000
  0.000  0.000  1.000
    occupations:
  0.667  0.000  0.000
  0.000  0.667  0.000
  0.000  0.000  0.667
   spin  2
    eigenvalues: 
  0.667  0.667  0.667
    eigenvectors:
  1.000  0.000  0.000
  0.000  1.000  0.000
  0.000  0.000  1.000
    occupations:
  0.667  0.000  0.000
  0.000  0.667  0.000
  0.000  0.000  0.667
atomic mag. moment =     0.000000
atom   15   Tr[ns(na)] (up, down, total) =   2.00000  2.00000  4.00000
   spin  1
    eigenvalues: 
  0.667  0.667  0.667
    eigenvectors:
  1.000  0.000  0.000
  0.000  1.000  0.000
  0.000  0.000  1.000
    occupations:
  0.667  0.000  0.000
  0.000  0.667  0.000
  0.000  0.000  0.667
   spin  2
    eigenvalues: 
  0.667  0.667  0.667
    eigenvectors:
  1.000  0.000  0.000
  0.000  1.000  0.000
  0.000  0.000  1.000
    occupations:
  0.667  0.000  0.000
  0.000  0.667  0.000
  0.000  0.000  0.667
atomic mag. moment =     0.000000
atom   16   Tr[ns(na)] (up, down, total) =   2.00000  2.00000  4.00000
   spin  1
    eigenvalues: 
  0.667  0.667  0.667
    eigenvectors:
  1.000  0.000  0.000
  0.000  1.000  0.000
  0.000  0.000  1.000
    occupations:
  0.667  0.000  0.000
  0.000  0.667  0.000
  0.000  0.000  0.667
   spin  2
    eigenvalues: 
  0.667  0.667  0.667
    eigenvectors:
  1.000  0.000  0.000
  0.000  1.000  0.000
  0.000  0.000  1.000
    occupations:
  0.667  0.000  0.000
  0.000  0.667  0.000
  0.000  0.000  0.667
atomic mag. moment =     0.000000
N of occupied +U levels =  96.0000000
 --- exit write_ns ---
 Atomic wfc used for LDA+U Projector are NOT orthogonalized
     Starting wfc are   80 randomized atomic wfcs

     total cpu time spent up to now is       17.1 secs

     per-process dynamical memory:    88.1 Mb

     Self-consistent Calculation

     iteration #  1     ecut=    30.00 Ry     beta=0.30
     Davidson diagonalization with overlap
     ethr =  1.00E-02,  avg # of iterations =  3.4
 --- enter write_ns ---
 LDA+U parameters:
U( 1)     =  0.00000000
alpha( 1) =  0.00000000
U( 2)     =  0.00000000
alpha( 2) =  0.00000000
U( 3)     =  0.00000000
alpha( 3) =  0.00000000
U( 4)     =  0.00000000
alpha( 4) =  0.00000000
atom    1   Tr[ns(na)] (up, down, total) =   4.98503  3.05428  8.03931
   spin  1
    eigenvalues: 
  0.995  0.995  0.998  0.998  0.999
    eigenvectors:
  0.575  0.424  0.000  0.000  0.000
  0.000  0.000  0.108  0.559  0.333
  0.000  0.000  0.233  0.433  0.333
  0.424  0.575  0.000  0.000  0.000
  0.000  0.000  0.658  0.008  0.333
    occupations:
  0.995  0.000  0.000  0.000  0.000
  0.000  0.998  0.000  0.000  0.000
  0.000  0.000  0.998  0.000  0.000
  0.000  0.000  0.000  0.995  0.000
  0.000  0.000  0.000  0.000  0.998
   spin  2
    eigenvalues: 
  0.231  0.231  0.853  0.853  0.886
    eigenvectors:
  0.352  0.647  0.000  0.000  0.000
  0.000  0.000  0.167  0.500  0.333
  0.000  0.000  0.167  0.500  0.333
  0.647  0.352  0.000  0.000  0.000
  0.000  0.000  0.666  0.000  0.333
    occupations:
  0.231  0.006  0.006  0.000  0.011
  0.006  0.864  0.011  0.010 -0.011
  0.006  0.011  0.864 -0.010 -0.011
  0.000  0.010 -0.010  0.231  0.000
  0.011 -0.011 -0.011  0.000  0.864
atomic mag. moment =     1.930751
atom    2   Tr[ns(na)] (up, down, total) =   4.98503  3.05435  8.03938
   spin  1
    eigenvalues: 
  0.995  0.995  0.998  0.998  0.999
    eigenvectors:
  0.250  0.750  0.000  0.000  0.000
  0.000  0.000  0.500  0.168  0.332
  0.000  0.000  0.000  0.663  0.336
  0.750  0.250  0.000  0.000  0.000
  0.000  0.000  0.500  0.168  0.332
    occupations:
  0.995  0.000  0.000  0.000  0.000
  0.000  0.998  0.000  0.000  0.000
  0.000  0.000  0.998  0.000  0.000
  0.000  0.000  0.000  0.995  0.000
  0.000  0.000  0.000  0.000  0.998
   spin  2
    eigenvalues: 
  0.231  0.231  0.853  0.854  0.886
    eigenvectors:
  0.250  0.750  0.000  0.000  0.000
  0.000  0.000  0.166  0.500  0.334
  0.000  0.000  0.667  0.000  0.333
  0.750  0.250  0.000  0.000  0.000
  0.000  0.000  0.166  0.500  0.334
    occupations:
  0.231  0.006  0.006  0.000  0.011
  0.006  0.864  0.011  0.010 -0.011
  0.006  0.011  0.864 -0.010 -0.011
  0.000  0.010 -0.010  0.231  0.000
  0.011 -0.011 -0.011  0.000  0.864
atomic mag. moment =     1.930685
atom    3   Tr[ns(na)] (up, down, total) =   4.98503  3.05435  8.03938
   spin  1
    eigenvalues: 
  0.995  0.995  0.998  0.998  0.999
    eigenvectors:
  0.250  0.750  0.000  0.000  0.000
  0.000  0.000  0.000  0.663  0.336
  0.000  0.000  0.500  0.168  0.332
  0.750  0.250  0.000  0.000  0.000
  0.000  0.000  0.500  0.168  0.332
    occupations:
  0.995  0.000  0.000  0.000  0.000
  0.000  0.998  0.000  0.000  0.000
  0.000  0.000  0.998  0.000  0.000
  0.000  0.000  0.000  0.995  0.000
  0.000  0.000  0.000  0.000  0.998
   spin  2
    eigenvalues: 
  0.231  0.231  0.853  0.854  0.886
    eigenvectors:
  0.250  0.750  0.000  0.000  0.000
  0.000  0.000  0.667  0.000  0.333
  0.000  0.000  0.166  0.500  0.334
  0.750  0.250  0.000  0.000  0.000
  0.000  0.000  0.166  0.500  0.334
    occupations:
  0.231  0.006  0.006  0.000  0.011
  0.006  0.864  0.011  0.010 -0.011
  0.006  0.011  0.864 -0.010 -0.011
  0.000  0.010 -0.010  0.231  0.000
  0.011 -0.011 -0.011  0.000  0.864
atomic mag. moment =     1.930685
atom    4   Tr[ns(na)] (up, down, total) =   4.98503  3.05435  8.03938
   spin  1
    eigenvalues: 
  0.995  0.995  0.998  0.998  0.999
    eigenvectors:
  1.000  0.000  0.000  0.000  0.000
  0.000  0.000  0.500  0.168  0.332
  0.000  0.000  0.500  0.168  0.332
  0.000  1.000  0.000  0.000  0.000
  0.000  0.000  0.000  0.663  0.336
    occupations:
  0.995  0.000  0.000  0.000  0.000
  0.000  0.998  0.000  0.000  0.000
  0.000  0.000  0.998  0.000  0.000
  0.000  0.000  0.000  0.995  0.000
  0.000  0.000  0.000  0.000  0.998
   spin  2
    eigenvalues: 
  0.231  0.231  0.853  0.854  0.886
    eigenvectors:
  1.000  0.000  0.000  0.000  0.000
  0.000  0.000  0.166  0.500  0.334
  0.000  0.000  0.166  0.500  0.334
  0.000  1.000  0.000  0.000  0.000
  0.000  0.000  0.667  0.000  0.333
    occupations:
  0.231  0.006  0.006  0.000  0.011
  0.006  0.864  0.011  0.010 -0.011
  0.006  0.011  0.864 -0.010 -0.011
  0.000  0.010 -0.010  0.231  0.000
  0.011 -0.011 -0.011  0.000  0.864
atomic mag. moment =     1.930685
atom    5   Tr[ns(na)] (up, down, total) =   3.05428  4.98505  8.03933
   spin  1
    eigenvalues: 
  0.231  0.231  0.853  0.854  0.886
    eigenvectors:
  1.000  0.000  0.000  0.000  0.000
  0.000  0.000  0.500  0.167  0.333
  0.000  0.000  0.500  0.167  0.333
  0.000  1.000  0.000  0.000  0.000
  0.000  0.000  0.000  0.666  0.334
    occupations:
  0.231  0.006  0.006  0.000  0.011
  0.006  0.864  0.011  0.010 -0.011
  0.006  0.011  0.864 -0.010 -0.011
  0.000  0.010 -0.010  0.231  0.000
  0.011 -0.011 -0.011  0.000  0.864
   spin  2
    eigenvalues: 
  0.995  0.995  0.998  0.998  0.999
    eigenvectors:
  0.000  1.000  0.000  0.000  0.000
  0.000  0.000  0.500  0.166  0.334
  0.000  0.000  0.500  0.166  0.334
  1.000  0.000  0.000  0.000  0.000
  0.000  0.000  0.000  0.667  0.333
    occupations:
  0.995  0.000  0.000  0.000  0.000
  0.000  0.998  0.000  0.000  0.000
  0.000  0.000  0.998  0.000  0.000
  0.000  0.000  0.000  0.995  0.000
  0.000  0.000  0.000  0.000  0.998
atomic mag. moment =    -1.930774
atom    6   Tr[ns(na)] (up, down, total) =   3.05428  4.98505  8.03933
   spin  1
    eigenvalues: 
  0.231  0.231  0.853  0.854  0.886
    eigenvectors:
  0.250  0.750  0.000  0.000  0.000
  0.000  0.000  0.000  0.666  0.334
  0.000  0.000  0.500  0.167  0.333
  0.750  0.250  0.000  0.000  0.000
  0.000  0.000  0.500  0.167  0.333
    occupations:
  0.231  0.006  0.006  0.000  0.011
  0.006  0.864  0.011  0.010 -0.011
  0.006  0.011  0.864 -0.010 -0.011
  0.000  0.010 -0.010  0.231  0.000
  0.011 -0.011 -0.011  0.000  0.864
   spin  2
    eigenvalues: 
  0.995  0.995  0.998  0.998  0.999
    eigenvectors:
  0.750  0.250  0.000  0.000  0.000
  0.000  0.000  0.000  0.667  0.333
  0.000  0.000  0.500  0.166  0.334
  0.250  0.750  0.000  0.000  0.000
  0.000  0.000  0.500  0.166  0.334
    occupations:
  0.995  0.000  0.000  0.000  0.000
  0.000  0.998  0.000  0.000  0.000
  0.000  0.000  0.998  0.000  0.000
  0.000  0.000  0.000  0.995  0.000
  0.000  0.000  0.000  0.000  0.998
atomic mag. moment =    -1.930774
atom    7   Tr[ns(na)] (up, down, total) =   3.05428  4.98505  8.03933
   spin  1
    eigenvalues: 
  0.231  0.231  0.853  0.854  0.886
    eigenvectors:
  0.250  0.750  0.000  0.000  0.000
  0.000  0.000  0.500  0.167  0.333
  0.000  0.000  0.000  0.666  0.334
  0.750  0.250  0.000  0.000  0.000
  0.000  0.000  0.500  0.167  0.333
    occupations:
  0.231  0.006  0.006  0.000  0.011
  0.006  0.864  0.011  0.010 -0.011
  0.006  0.011  0.864 -0.010 -0.011
  0.000  0.010 -0.010  0.231  0.000
  0.011 -0.011 -0.011  0.000  0.864
   spin  2
    eigenvalues: 
  0.995  0.995  0.998  0.998  0.999
    eigenvectors:
  0.750  0.250  0.000  0.000  0.000
  0.000  0.000  0.500  0.166  0.334
  0.000  0.000  0.000  0.667  0.333
  0.250  0.750  0.000  0.000  0.000
  0.000  0.000  0.500  0.166  0.334
    occupations:
  0.995  0.000  0.000  0.000  0.000
  0.000  0.998  0.000  0.000  0.000
  0.000  0.000  0.998  0.000  0.000
  0.000  0.000  0.000  0.995  0.000
  0.000  0.000  0.000  0.000  0.998
atomic mag. moment =    -1.930774
atom    8   Tr[ns(na)] (up, down, total) =   3.05437  4.98505  8.03942
   spin  1
    eigenvalues: 
  0.230  0.230  0.854  0.854  0.886
    eigenvectors:
  0.402  0.597  0.000  0.000  0.000
  0.000  0.000  0.147  0.520  0.333
  0.000  0.000  0.187  0.479  0.333
  0.597  0.402  0.000  0.000  0.000
  0.000  0.000  0.666  0.001  0.333
    occupations:
  0.231  0.006  0.006  0.000  0.011
  0.006  0.864  0.011  0.010 -0.011
  0.006  0.011  0.864 -0.010 -0.011
  0.000  0.010 -0.010  0.231  0.000
  0.011 -0.011 -0.011  0.000  0.864
   spin  2
    eigenvalues: 
  0.995  0.995  0.998  0.998  0.999
    eigenvectors:
  0.680  0.319  0.000  0.000  0.000
  0.000  0.000  0.110  0.556  0.333
  0.000  0.000  0.230  0.436  0.333
  0.319  0.680  0.000  0.000  0.000
  0.000  0.000  0.659  0.007  0.333
    occupations:
  0.995  0.000  0.000  0.000  0.000
  0.000  0.998  0.000  0.000  0.000
  0.000  0.000  0.998  0.000  0.000
  0.000  0.000  0.000  0.995  0.000
  0.000  0.000  0.000  0.000  0.998
atomic mag. moment =    -1.930682
atom    9   Tr[ns(na)] (up, down, total) =   2.96582  2.96584  5.93166
   spin  1
    eigenvalues: 
  0.988  0.988  0.989
    eigenvectors:
  0.000  0.668  0.332
  0.500  0.166  0.334
  0.500  0.166  0.334
    occupations:
  0.989  0.000  0.000
  0.000  0.989  0.000
  0.000  0.000  0.989
   spin  2
    eigenvalues: 
  0.988  0.988  0.989
    eigenvectors:
  0.663  0.000  0.337
  0.168  0.500  0.332
  0.168  0.500  0.332
    occupations:
  0.989  0.000  0.000
  0.000  0.989  0.000
  0.000  0.000  0.989
atomic mag. moment =    -0.000012
atom   10   Tr[ns(na)] (up, down, total) =   2.96586  2.96583  5.93169
   spin  1
    eigenvalues: 
  0.988  0.988  0.989
    eigenvectors:
  0.478  0.189  0.333
  0.521  0.145  0.333
  0.001  0.666  0.333
    occupations:
  0.989  0.000  0.000
  0.000  0.989  0.000
  0.000  0.000  0.989
   spin  2
    eigenvalues: 
  0.988  0.988  0.989
    eigenvectors:
  0.439  0.228  0.333
  0.554  0.112  0.333
  0.007  0.660  0.333
    occupations:
  0.989  0.000  0.000
  0.000  0.989  0.000
  0.000  0.000  0.989
atomic mag. moment =     0.000031
atom   11   Tr[ns(na)] (up, down, total) =   2.96582  2.96584  5.93166
   spin  1
    eigenvalues: 
  0.988  0.988  0.989
    eigenvectors:
  0.500  0.166  0.334
  0.500  0.166  0.334
  0.000  0.668  0.332
    occupations:
  0.989  0.000  0.000
  0.000  0.989  0.000
  0.000  0.000  0.989
   spin  2
    eigenvalues: 
  0.988  0.988  0.989
    eigenvectors:
  0.168  0.500  0.332
  0.168  0.500  0.332
  0.663  0.000  0.337
    occupations:
  0.989  0.000  0.000
  0.000  0.989  0.000
  0.000  0.000  0.989
atomic mag. moment =    -0.000012
atom   12   Tr[ns(na)] (up, down, total) =   2.96582  2.96584  5.93166
   spin  1
    eigenvalues: 
  0.988  0.988  0.989
    eigenvectors:
  0.500  0.166  0.334
  0.000  0.668  0.332
  0.500  0.166  0.334
    occupations:
  0.989  0.000  0.000
  0.000  0.989  0.000
  0.000  0.000  0.989
   spin  2
    eigenvalues: 
  0.988  0.988  0.989
    eigenvectors:
  0.168  0.500  0.332
  0.663  0.000  0.337
  0.168  0.500  0.332
    occupations:
  0.989  0.000  0.000
  0.000  0.989  0.000
  0.000  0.000  0.989
atomic mag. moment =    -0.000012
atom   13   Tr[ns(na)] (up, down, total) =   2.96582  2.96584  5.93166
   spin  1
    eigenvalues: 
  0.988  0.988  0.989
    eigenvectors:
  0.500  0.166  0.334
  0.500  0.166  0.334
  0.000  0.668  0.332
    occupations:
  0.989  0.000  0.000
  0.000  0.989  0.000
  0.000  0.000  0.989
   spin  2
    eigenvalues: 
  0.988  0.988  0.989
    eigenvectors:
  0.168  0.500  0.332
  0.168  0.500  0.332
  0.663  0.000  0.337
    occupations:
  0.989  0.000  0.000
  0.000  0.989  0.000
  0.000  0.000  0.989
atomic mag. moment =    -0.000012
atom   14   Tr[ns(na)] (up, down, total) =   2.96582  2.96584  5.93166
   spin  1
    eigenvalues: 
  0.988  0.988  0.989
    eigenvectors:
  0.500  0.166  0.334
  0.000  0.668  0.332
  0.500  0.166  0.334
    occupations:
  0.989  0.000  0.000
  0.000  0.989  0.000
  0.000  0.000  0.989
   spin  2
    eigenvalues: 
  0.988  0.988  0.989
    eigenvectors:
  0.168  0.500  0.332
  0.663  0.000  0.337
  0.168  0.500  0.332
    occupations:
  0.989  0.000  0.000
  0.000  0.989  0.000
  0.000  0.000  0.989
atomic mag. moment =    -0.000012
atom   15   Tr[ns(na)] (up, down, total) =   2.96586  2.96583  5.93169
   spin  1
    eigenvalues: 
  0.988  0.988  0.989
    eigenvectors:
  0.391  0.276  0.333
  0.589  0.078  0.333
  0.020  0.646  0.333
    occupations:
  0.989  0.000  0.000
  0.000  0.989  0.000
  0.000  0.000  0.989
   spin  2
    eigenvalues: 
  0.988  0.988  0.989
    eigenvectors:
  0.418  0.248  0.333
  0.570  0.097  0.333
  0.012  0.655  0.333
    occupations:
  0.989  0.000  0.000
  0.000  0.989  0.000
  0.000  0.000  0.989
atomic mag. moment =     0.000031
atom   16   Tr[ns(na)] (up, down, total) =   2.96582  2.96584  5.93166
   spin  1
    eigenvalues: 
  0.988  0.988  0.989
    eigenvectors:
  0.000  0.668  0.332
  0.500  0.166  0.334
  0.500  0.166  0.334
    occupations:
  0.989  0.000  0.000
  0.000  0.989  0.000
  0.000  0.000  0.989
   spin  2
    eigenvalues: 
  0.988  0.988  0.989
    eigenvectors:
  0.663  0.000  0.337
  0.168  0.500  0.332
  0.168  0.500  0.332
    occupations:
  0.989  0.000  0.000
  0.000  0.989  0.000
  0.000  0.000  0.989
atomic mag. moment =    -0.000012
N of occupied +U levels = 111.7682162
 --- exit write_ns ---

     total cpu time spent up to now is       44.5 secs

     total energy              =    -938.67535270 Ry
     Harris-Foulkes estimate   =    -942.62887936 Ry
     estimated scf accuracy    <      10.31046494 Ry

     total magnetization       =     0.00 Bohr mag/cell
     absolute magnetization    =    18.76 Bohr mag/cell

     iteration #  2     ecut=    30.00 Ry     beta=0.30
     Davidson diagonalization with overlap
     ethr =  8.06E-03,  avg # of iterations =  2.0

     total cpu time spent up to now is       71.3 secs

     total energy              =    -941.37250412 Ry
     Harris-Foulkes estimate   =    -941.32862828 Ry
     estimated scf accuracy    <       2.04730032 Ry

     total magnetization       =     0.00 Bohr mag/cell
     absolute magnetization    =    12.30 Bohr mag/cell

     iteration #  3     ecut=    30.00 Ry     beta=0.30
     Davidson diagonalization with overlap
     ethr =  1.60E-03,  avg # of iterations =  1.0

     negative rho (up, down):  0.110E-03 0.110E-03

     total cpu time spent up to now is       97.5 secs

     total energy              =    -941.93303929 Ry
     Harris-Foulkes estimate   =    -941.51007706 Ry
     estimated scf accuracy    <       0.67333405 Ry

     total magnetization       =     0.00 Bohr mag/cell
     absolute magnetization    =    13.40 Bohr mag/cell

     iteration #  4     ecut=    30.00 Ry     beta=0.30
     Davidson diagonalization with overlap
     ethr =  5.26E-04,  avg # of iterations =  1.8

     negative rho (up, down):  0.409E-04 0.410E-04

     total cpu time spent up to now is      123.8 secs

     total energy              =    -941.98009029 Ry
     Harris-Foulkes estimate   =    -941.97166722 Ry
     estimated scf accuracy    <       0.01890680 Ry

     total magnetization       =     0.00 Bohr mag/cell
     absolute magnetization    =    12.58 Bohr mag/cell

     iteration #  5     ecut=    30.00 Ry     beta=0.30
     Davidson diagonalization with overlap
     ethr =  1.48E-05,  avg # of iterations =  4.6

     total cpu time spent up to now is      151.3 secs

     total energy              =    -941.98973929 Ry
     Harris-Foulkes estimate   =    -941.98267442 Ry
     estimated scf accuracy    <       0.00252369 Ry

     total magnetization       =     0.00 Bohr mag/cell
     absolute magnetization    =    12.68 Bohr mag/cell

     iteration #  6     ecut=    30.00 Ry     beta=0.30
     Davidson diagonalization with overlap
     ethr =  1.97E-06,  avg # of iterations =  3.0

     total cpu time spent up to now is      177.9 secs

     total energy              =    -941.99322992 Ry
     Harris-Foulkes estimate   =    -941.98987647 Ry
     estimated scf accuracy    <       0.00073783 Ry

     total magnetization       =     0.00 Bohr mag/cell
     absolute magnetization    =    12.66 Bohr mag/cell

     iteration #  7     ecut=    30.00 Ry     beta=0.30
     Davidson diagonalization with overlap
     ethr =  5.76E-07,  avg # of iterations =  1.9

     total cpu time spent up to now is      204.3 secs

     total energy              =    -941.99482979 Ry
     Harris-Foulkes estimate   =    -941.99330407 Ry
     estimated scf accuracy    <       0.00012791 Ry

     total magnetization       =     0.00 Bohr mag/cell
     absolute magnetization    =    12.66 Bohr mag/cell

     iteration #  8     ecut=    30.00 Ry     beta=0.30
     Davidson diagonalization with overlap
     ethr =  9.99E-08,  avg # of iterations =  1.9

     total cpu time spent up to now is      230.8 secs

     total energy              =    -941.99554240 Ry
     Harris-Foulkes estimate   =    -941.99484229 Ry
     estimated scf accuracy    <       0.00001431 Ry

     total magnetization       =     0.00 Bohr mag/cell
     absolute magnetization    =    12.66 Bohr mag/cell

     iteration #  9     ecut=    30.00 Ry     beta=0.30
     Davidson diagonalization with overlap
     ethr =  1.12E-08,  avg # of iterations =  2.0

     total cpu time spent up to now is      257.6 secs

     total energy              =    -941.99588224 Ry
     Harris-Foulkes estimate   =    -941.99554635 Ry
     estimated scf accuracy    <       0.00000155 Ry

     total magnetization       =     0.00 Bohr mag/cell
     absolute magnetization    =    12.66 Bohr mag/cell

     iteration # 10     ecut=    30.00 Ry     beta=0.30
     Davidson diagonalization with overlap
     ethr =  1.21E-09,  avg # of iterations =  2.0

     total cpu time spent up to now is      284.2 secs

     total energy              =    -941.99604554 Ry
     Harris-Foulkes estimate   =    -941.99588238 Ry
     estimated scf accuracy    <       0.00000028 Ry

     total magnetization       =     0.00 Bohr mag/cell
     absolute magnetization    =    12.66 Bohr mag/cell

     iteration # 11     ecut=    30.00 Ry     beta=0.30
     Davidson diagonalization with overlap
     ethr =  2.21E-10,  avg # of iterations =  2.0

     total cpu time spent up to now is      311.2 secs

     total energy              =    -941.99612435 Ry
     Harris-Foulkes estimate   =    -941.99604558 Ry
     estimated scf accuracy    <       0.00000007 Ry

     total magnetization       =     0.00 Bohr mag/cell
     absolute magnetization    =    12.66 Bohr mag/cell

     iteration # 12     ecut=    30.00 Ry     beta=0.30
     Davidson diagonalization with overlap
     ethr =  5.39E-11,  avg # of iterations =  2.0

     total cpu time spent up to now is      338.0 secs

     total energy              =    -941.99616262 Ry
     Harris-Foulkes estimate   =    -941.99612437 Ry
     estimated scf accuracy    <       0.00000001 Ry

     total magnetization       =     0.00 Bohr mag/cell
     absolute magnetization    =    12.66 Bohr mag/cell

     iteration # 13     ecut=    30.00 Ry     beta=0.30
     Davidson diagonalization with overlap
     ethr =  8.16E-12,  avg # of iterations =  2.1

     total cpu time spent up to now is      365.1 secs

     End of self-consistent calculation
 --- enter write_ns ---
 LDA+U parameters:
U( 1)     =  0.00000000
alpha( 1) =  0.00000000
U( 2)     =  0.00000000
alpha( 2) =  0.00000000
U( 3)     =  0.00000000
alpha( 3) =  0.00000000
U( 4)     =  0.00000000
alpha( 4) =  0.00000000
atom    1   Tr[ns(na)] (up, down, total) =   4.96210  3.72839  8.69049
   spin  1
    eigenvalues: 
  0.985  0.985  0.997  0.997  0.997
    eigenvectors:
  0.685  0.314  0.000  0.000  0.000
  0.000  0.000  0.133  0.534  0.333
  0.000  0.000  0.203  0.464  0.333
  0.314  0.685  0.000  0.000  0.000
  0.000  0.000  0.664  0.002  0.333
    occupations:
  0.985  0.000  0.000  0.000  0.000
  0.000  0.997  0.000  0.000  0.000
  0.000  0.000  0.997  0.000  0.000
  0.000  0.000  0.000  0.985  0.000
  0.000  0.000  0.000  0.000  0.997
   spin  2
    eigenvalues: 
  0.370  0.370  0.996  0.996  0.996
    eigenvectors:
  0.418  0.582  0.000  0.000  0.000
  0.000  0.000  0.150  0.516  0.333
  0.000  0.000  0.183  0.483  0.333
  0.582  0.418  0.000  0.000  0.000
  0.000  0.000  0.666  0.001  0.333
    occupations:
  0.370  0.000  0.000  0.000  0.001
  0.000  0.996  0.000  0.001  0.000
  0.000  0.000  0.996 -0.001  0.000
  0.000  0.001 -0.001  0.370  0.000
  0.001  0.000  0.000  0.000  0.996
atomic mag. moment =     1.233715
atom    2   Tr[ns(na)] (up, down, total) =   4.96210  3.72838  8.69048
   spin  1
    eigenvalues: 
  0.985  0.985  0.997  0.997  0.997
    eigenvectors:
  0.750  0.250  0.000  0.000  0.000
  0.000  0.000  0.152  0.500  0.348
  0.000  0.000  0.696  0.000  0.304
  0.250  0.750  0.000  0.000  0.000
  0.000  0.000  0.152  0.500  0.348
    occupations:
  0.985  0.000  0.000  0.000  0.000
  0.000  0.997  0.000  0.000  0.000
  0.000  0.000  0.997  0.000  0.000
  0.000  0.000  0.000  0.985  0.000
  0.000  0.000  0.000  0.000  0.997
   spin  2
    eigenvalues: 
  0.370  0.370  0.996  0.996  0.996
    eigenvectors:
  0.250  0.750  0.000  0.000  0.000
  0.000  0.000  0.166  0.500  0.334
  0.000  0.000  0.667  0.000  0.333
  0.750  0.250  0.000  0.000  0.000
  0.000  0.000  0.166  0.500  0.334
    occupations:
  0.370  0.000  0.000  0.000  0.001
  0.000  0.996  0.000  0.001  0.000
  0.000  0.000  0.996 -0.001  0.000
  0.000  0.001 -0.001  0.370  0.000
  0.001  0.000  0.000  0.000  0.996
atomic mag. moment =     1.233723
atom    3   Tr[ns(na)] (up, down, total) =   4.96210  3.72838  8.69048
   spin  1
    eigenvalues: 
  0.985  0.985  0.997  0.997  0.997
    eigenvectors:
  0.750  0.250  0.000  0.000  0.000
  0.000  0.000  0.696  0.000  0.304
  0.000  0.000  0.152  0.500  0.348
  0.250  0.750  0.000  0.000  0.000
  0.000  0.000  0.152  0.500  0.348
    occupations:
  0.985  0.000  0.000  0.000  0.000
  0.000  0.997  0.000  0.000  0.000
  0.000  0.000  0.997  0.000  0.000
  0.000  0.000  0.000  0.985  0.000
  0.000  0.000  0.000  0.000  0.997
   spin  2
    eigenvalues: 
  0.370  0.370  0.996  0.996  0.996
    eigenvectors:
  0.250  0.750  0.000  0.000  0.000
  0.000  0.000  0.667  0.000  0.333
  0.000  0.000  0.166  0.500  0.334
  0.750  0.250  0.000  0.000  0.000
  0.000  0.000  0.166  0.500  0.334
    occupations:
  0.370  0.000  0.000  0.000  0.001
  0.000  0.996  0.000  0.001  0.000
  0.000  0.000  0.996 -0.001  0.000
  0.000  0.001 -0.001  0.370  0.000
  0.001  0.000  0.000  0.000  0.996
atomic mag. moment =     1.233723
atom    4   Tr[ns(na)] (up, down, total) =   4.96210  3.72838  8.69048
   spin  1
    eigenvalues: 
  0.985  0.985  0.997  0.997  0.997
    eigenvectors:
  0.000  1.000  0.000  0.000  0.000
  0.000  0.000  0.152  0.500  0.348
  0.000  0.000  0.152  0.500  0.348
  1.000  0.000  0.000  0.000  0.000
  0.000  0.000  0.696  0.000  0.304
    occupations:
  0.985  0.000  0.000  0.000  0.000
  0.000  0.997  0.000  0.000  0.000
  0.000  0.000  0.997  0.000  0.000
  0.000  0.000  0.000  0.985  0.000
  0.000  0.000  0.000  0.000  0.997
   spin  2
    eigenvalues: 
  0.370  0.370  0.996  0.996  0.996
    eigenvectors:
  1.000  0.000  0.000  0.000  0.000
  0.000  0.000  0.166  0.500  0.334
  0.000  0.000  0.166  0.500  0.334
  0.000  1.000  0.000  0.000  0.000
  0.000  0.000  0.667  0.000  0.333
    occupations:
  0.370  0.000  0.000  0.000  0.001
  0.000  0.996  0.000  0.001  0.000
  0.000  0.000  0.996 -0.001  0.000
  0.000  0.001 -0.001  0.370  0.000
  0.001  0.000  0.000  0.000  0.996
atomic mag. moment =     1.233723
atom    5   Tr[ns(na)] (up, down, total) =   3.72838  4.96210  8.69049
   spin  1
    eigenvalues: 
  0.370  0.370  0.996  0.996  0.996
    eigenvectors:
  1.000  0.000  0.000  0.000  0.000
  0.000  0.000  0.166  0.500  0.334
  0.000  0.000  0.166  0.500  0.334
  0.000  1.000  0.000  0.000  0.000
  0.000  0.000  0.667  0.000  0.333
    occupations:
  0.370  0.000  0.000  0.000  0.001
  0.000  0.996  0.000  0.001  0.000
  0.000  0.000  0.996 -0.001  0.000
  0.000  0.001 -0.001  0.370  0.000
  0.001  0.000  0.000  0.000  0.996
   spin  2
    eigenvalues: 
  0.985  0.985  0.997  0.997  0.997
    eigenvectors:
  0.000  1.000  0.000  0.000  0.000
  0.000  0.000  0.152  0.500  0.348
  0.000  0.000  0.152  0.500  0.348
  1.000  0.000  0.000  0.000  0.000
  0.000  0.000  0.696  0.000  0.304
    occupations:
  0.985  0.000  0.000  0.000  0.000
  0.000  0.997  0.000  0.000  0.000
  0.000  0.000  0.997  0.000  0.000
  0.000  0.000  0.000  0.985  0.000
  0.000  0.000  0.000  0.000  0.997
atomic mag. moment =    -1.233722
atom    6   Tr[ns(na)] (up, down, total) =   3.72838  4.96210  8.69049
   spin  1
    eigenvalues: 
  0.370  0.370  0.996  0.996  0.996
    eigenvectors:
  0.250  0.750  0.000  0.000  0.000
  0.000  0.000  0.667  0.000  0.333
  0.000  0.000  0.166  0.500  0.334
  0.750  0.250  0.000  0.000  0.000
  0.000  0.000  0.166  0.500  0.334
    occupations:
  0.370  0.000  0.000  0.000  0.001
  0.000  0.996  0.000  0.001  0.000
  0.000  0.000  0.996 -0.001  0.000
  0.000  0.001 -0.001  0.370  0.000
  0.001  0.000  0.000  0.000  0.996
   spin  2
    eigenvalues: 
  0.985  0.985  0.997  0.997  0.997
    eigenvectors:
  0.750  0.250  0.000  0.000  0.000
  0.000  0.000  0.696  0.000  0.304
  0.000  0.000  0.152  0.500  0.348
  0.250  0.750  0.000  0.000  0.000
  0.000  0.000  0.152  0.500  0.348
    occupations:
  0.985  0.000  0.000  0.000  0.000
  0.000  0.997  0.000  0.000  0.000
  0.000  0.000  0.997  0.000  0.000
  0.000  0.000  0.000  0.985  0.000
  0.000  0.000  0.000  0.000  0.997
atomic mag. moment =    -1.233722
atom    7   Tr[ns(na)] (up, down, total) =   3.72838  4.96210  8.69049
   spin  1
    eigenvalues: 
  0.370  0.370  0.996  0.996  0.996
    eigenvectors:
  0.250  0.750  0.000  0.000  0.000
  0.000  0.000  0.166  0.500  0.334
  0.000  0.000  0.667  0.000  0.333
  0.750  0.250  0.000  0.000  0.000
  0.000  0.000  0.166  0.500  0.334
    occupations:
  0.370  0.000  0.000  0.000  0.001
  0.000  0.996  0.000  0.001  0.000
  0.000  0.000  0.996 -0.001  0.000
  0.000  0.001 -0.001  0.370  0.000
  0.001  0.000  0.000  0.000  0.996
   spin  2
    eigenvalues: 
  0.985  0.985  0.997  0.997  0.997
    eigenvectors:
  0.750  0.250  0.000  0.000  0.000
  0.000  0.000  0.152  0.500  0.348
  0.000  0.000  0.696  0.000  0.304
  0.250  0.750  0.000  0.000  0.000
  0.000  0.000  0.152  0.500  0.348
    occupations:
  0.985  0.000  0.000  0.000  0.000
  0.000  0.997  0.000  0.000  0.000
  0.000  0.000  0.997  0.000  0.000
  0.000  0.000  0.000  0.985  0.000
  0.000  0.000  0.000  0.000  0.997
atomic mag. moment =    -1.233722
atom    8   Tr[ns(na)] (up, down, total) =   3.72839  4.96210  8.69049
   spin  1
    eigenvalues: 
  0.370  0.370  0.996  0.996  0.996
    eigenvectors:
  0.326  0.674  0.000  0.000  0.000
  0.000  0.000  0.073  0.594  0.333
  0.000  0.000  0.283  0.383  0.333
  0.674  0.326  0.000  0.000  0.000
  0.000  0.000  0.644  0.023  0.333
    occupations:
  0.370  0.000  0.000  0.000  0.001
  0.000  0.996  0.000  0.001  0.000
  0.000  0.000  0.996 -0.001  0.000
  0.000  0.001 -0.001  0.370  0.000
  0.001  0.000  0.000  0.000  0.996
   spin  2
    eigenvalues: 
  0.985  0.985  0.997  0.997  0.997
    eigenvectors:
  0.703  0.297  0.000  0.000  0.000
  0.000  0.000  0.170  0.496  0.333
  0.000  0.000  0.163  0.503  0.333
  0.297  0.703  0.000  0.000  0.000
  0.000  0.000  0.667  0.000  0.333
    occupations:
  0.985  0.000  0.000  0.000  0.000
  0.000  0.997  0.000  0.000  0.000
  0.000  0.000  0.997  0.000  0.000
  0.000  0.000  0.000  0.985  0.000
  0.000  0.000  0.000  0.000  0.997
atomic mag. moment =    -1.233714
atom    9   Tr[ns(na)] (up, down, total) =   2.81402  2.81402  5.62805
   spin  1
    eigenvalues: 
  0.938  0.938  0.938
    eigenvectors:
  0.670  0.000  0.330
  0.165  0.500  0.335
  0.165  0.500  0.335
    occupations:
  0.938  0.000  0.000
  0.000  0.938  0.000
  0.000  0.000  0.938
   spin  2
    eigenvalues: 
  0.938  0.938  0.938
    eigenvectors:
  0.670  0.000  0.330
  0.165  0.500  0.335
  0.165  0.500  0.335
    occupations:
  0.938  0.000  0.000
  0.000  0.938  0.000
  0.000  0.000  0.938
atomic mag. moment =     0.000000
atom   10   Tr[ns(na)] (up, down, total) =   2.81402  2.81403  5.62805
   spin  1
    eigenvalues: 
  0.938  0.938  0.938
    eigenvectors:
  0.417  0.250  0.333
  0.571  0.096  0.333
  0.012  0.655  0.333
    occupations:
  0.938  0.000  0.000
  0.000  0.938  0.000
  0.000  0.000  0.938
   spin  2
    eigenvalues: 
  0.938  0.938  0.938
    eigenvectors:
  0.448  0.219  0.333
  0.547  0.119  0.333
  0.005  0.662  0.333
    occupations:
  0.938  0.000  0.000
  0.000  0.938  0.000
  0.000  0.000  0.938
atomic mag. moment =    -0.000001
atom   11   Tr[ns(na)] (up, down, total) =   2.81402  2.81402  5.62805
   spin  1
    eigenvalues: 
  0.938  0.938  0.938
    eigenvectors:
  0.165  0.500  0.335
  0.165  0.500  0.335
  0.670  0.000  0.330
    occupations:
  0.938  0.000  0.000
  0.000  0.938  0.000
  0.000  0.000  0.938
   spin  2
    eigenvalues: 
  0.938  0.938  0.938
    eigenvectors:
  0.165  0.500  0.335
  0.165  0.500  0.335
  0.670  0.000  0.330
    occupations:
  0.938  0.000  0.000
  0.000  0.938  0.000
  0.000  0.000  0.938
atomic mag. moment =     0.000000
atom   12   Tr[ns(na)] (up, down, total) =   2.81402  2.81402  5.62805
   spin  1
    eigenvalues: 
  0.938  0.938  0.938
    eigenvectors:
  0.165  0.500  0.335
  0.670  0.000  0.330
  0.165  0.500  0.335
    occupations:
  0.938  0.000  0.000
  0.000  0.938  0.000
  0.000  0.000  0.938
   spin  2
    eigenvalues: 
  0.938  0.938  0.938
    eigenvectors:
  0.165  0.500  0.335
  0.670  0.000  0.330
  0.165  0.500  0.335
    occupations:
  0.938  0.000  0.000
  0.000  0.938  0.000
  0.000  0.000  0.938
atomic mag. moment =     0.000000
atom   13   Tr[ns(na)] (up, down, total) =   2.81402  2.81402  5.62805
   spin  1
    eigenvalues: 
  0.938  0.938  0.938
    eigenvectors:
  0.165  0.500  0.335
  0.165  0.500  0.335
  0.670  0.000  0.330
    occupations:
  0.938  0.000  0.000
  0.000  0.938  0.000
  0.000  0.000  0.938
   spin  2
    eigenvalues: 
  0.938  0.938  0.938
    eigenvectors:
  0.165  0.500  0.335
  0.165  0.500  0.335
  0.670  0.000  0.330
    occupations:
  0.938  0.000  0.000
  0.000  0.938  0.000
  0.000  0.000  0.938
atomic mag. moment =     0.000000
atom   14   Tr[ns(na)] (up, down, total) =   2.81402  2.81402  5.62805
   spin  1
    eigenvalues: 
  0.938  0.938  0.938
    eigenvectors:
  0.165  0.500  0.335
  0.670  0.000  0.330
  0.165  0.500  0.335
    occupations:
  0.938  0.000  0.000
  0.000  0.938  0.000
  0.000  0.000  0.938
   spin  2
    eigenvalues: 
  0.938  0.938  0.938
    eigenvectors:
  0.165  0.500  0.335
  0.670  0.000  0.330
  0.165  0.500  0.335
    occupations:
  0.938  0.000  0.000
  0.000  0.938  0.000
  0.000  0.000  0.938
atomic mag. moment =     0.000000
atom   15   Tr[ns(na)] (up, down, total) =   2.81402  2.81403  5.62805
   spin  1
    eigenvalues: 
  0.938  0.938  0.938
    eigenvectors:
  0.442  0.225  0.333
  0.552  0.115  0.333
  0.006  0.661  0.333
    occupations:
  0.938  0.000  0.000
  0.000  0.938  0.000
  0.000  0.000  0.938
   spin  2
    eigenvalues: 
  0.938  0.938  0.938
    eigenvectors:
  0.475  0.192  0.333
  0.524  0.143  0.333
  0.001  0.665  0.333
    occupations:
  0.938  0.000  0.000
  0.000  0.938  0.000
  0.000  0.000  0.938
atomic mag. moment =    -0.000001
atom   16   Tr[ns(na)] (up, down, total) =   2.81402  2.81402  5.62805
   spin  1
    eigenvalues: 
  0.938  0.938  0.938
    eigenvectors:
  0.670  0.000  0.330
  0.165  0.500  0.335
  0.165  0.500  0.335
    occupations:
  0.938  0.000  0.000
  0.000  0.938  0.000
  0.000  0.000  0.938
   spin  2
    eigenvalues: 
  0.938  0.938  0.938
    eigenvectors:
  0.670  0.000  0.330
  0.165  0.500  0.335
  0.165  0.500  0.335
    occupations:
  0.938  0.000  0.000
  0.000  0.938  0.000
  0.000  0.000  0.938
atomic mag. moment =     0.000000
N of occupied +U levels = 114.5482751
 --- exit write_ns ---

 ------ SPIN UP ------------


          k = 0.0000 0.0000 0.0000 (  2733 PWs)   bands (ev):

    -8.0408  -6.6434  -6.6433  -6.6433  -6.6433  -6.5753  -6.5753  -6.5753
     4.0453   4.0453   4.0453   4.0472   5.3547   5.3547   5.3547   6.5187
     6.5187   6.5297   6.5297   6.5297   6.5611   6.5611   6.5611   7.9923
     7.9923   7.9923   7.9935   7.9935   7.9935   8.7952   8.7952   8.7952
     9.3013   9.3013   9.3035   9.5099   9.5099   9.6525   9.8432   9.8432
     9.8908   9.8908   9.8908  10.1772  10.1772  10.1772  10.4483  10.4483
    10.4483  10.5574  10.5574  10.5574  10.8878  10.8878  11.0142  11.0142
    11.0142  11.1553  11.2402  11.2402  11.2403  11.3612  11.3612  11.3612
    13.5601  13.5601  13.6207  13.6207  13.6207  13.7062  13.7062  13.7062
    13.7714  17.8033  17.8051  17.8051  17.8051

          k = 0.2500-0.2500-0.2500 (  2764 PWs)   bands (ev):

    -7.4053  -7.4053  -6.6208  -6.6208  -6.6165  -6.6165  -6.6121  -6.6121
     5.0689   5.0689   5.0821   5.0821   5.0924   5.0924   6.1139   6.1139
     6.3285   6.3285   6.3946   6.3946   6.4720   6.4720   6.8452   6.8452
     7.0235   7.0235   7.3359   7.3359   7.4960   7.4960   7.6613   7.6613
     9.5868   9.5868   9.7785   9.7785   9.8504   9.8504   9.9793   9.9794
    10.1192  10.1192  10.1694  10.1694  10.4892  10.4893  10.6086  10.6086
    10.6393  10.6393  10.8363  10.8363  10.9364  10.9364  11.2187  11.2187
    11.2314  11.2314  11.2758  11.2758  11.3067  11.3067  11.4176  11.4176
    13.0582  13.0582  13.0625  13.0625  13.0698  13.0698  13.0825  13.0825
    16.5010  16.5010  19.6616  19.6616  19.7221

          k = 0.0000 0.0000-0.5000 (  2762 PWs)   bands (ev):

    -7.2680  -7.2680  -6.7714  -6.7714  -6.7713  -6.7713  -6.4669  -6.4669
     5.0306   5.0306   5.0414   5.0414   5.7849   5.7850   6.1217   6.1217
     6.1253   6.1253   6.4155   6.4155   6.6464   6.6464   6.6804   6.6804
     6.7396   6.7396   6.7463   6.7463   8.1732   8.1732   8.1832   8.1832
     9.2085   9.2085   9.8945   9.8946   9.9762   9.9762   9.9993   9.9994
    10.0148  10.0148  10.1273  10.1273  10.3156  10.3157  10.4480  10.4481
    10.4803  10.4804  10.5520  10.5520  10.8894  10.8894  10.9758  10.9758
    11.1285  11.1285  11.2117  11.2117  11.3110  11.3110  11.3260  11.3260
    12.4737  12.4738  12.7313  12.7313  13.5319  13.5319  13.6336  13.6337
    17.6875  17.6875  19.2701  19.2701  19.2705

          k =-0.2500-0.2500-0.2500 (  2764 PWs)   bands (ev):

    -7.4098  -7.4009  -6.6270  -6.6270  -6.6270  -6.6058  -6.6058  -6.6058
     5.0284   5.0284   5.0284   5.1342   5.1342   5.1342   6.0959   6.1362
     6.2604   6.2604   6.2604   6.7137   6.7137   6.7137   6.7417   6.7417
     6.7417   6.9614   6.9614   7.4785   7.4785   7.4785   7.8938   7.8938
     9.4414   9.4414   9.4414   9.6216   9.6216  10.0651  10.0651  10.0652
    10.0807  10.4308  10.4308  10.4308  10.4628  10.4628  10.4628  10.7043
    10.7043  10.8017  10.8017  10.8017  10.8523  11.0305  11.0305  11.0305
    11.2203  11.2203  11.2203  11.2884  11.2884  11.3797  11.3797  11.3797
    13.0577  13.0577  13.0577  13.0776  13.0776  13.0878  13.0878  13.0879
    16.4241  16.5808  19.6400  19.6400  19.6400

 ------ SPIN DOWN ----------


          k = 0.0000 0.0000 0.0000 (  2733 PWs)   bands (ev):

    -8.0408  -6.6434  -6.6433  -6.6433  -6.6433  -6.5753  -6.5753  -6.5753
     4.0453   4.0453   4.0453   4.0472   5.3547   5.3547   5.3547   6.5187
     6.5187   6.5297   6.5297   6.5297   6.5611   6.5611   6.5611   7.9923
     7.9923   7.9923   7.9935   7.9935   7.9935   8.7952   8.7952   8.7952
     9.3013   9.3013   9.3035   9.5099   9.5099   9.6525   9.8432   9.8432
     9.8908   9.8908   9.8908  10.1771  10.1772  10.1772  10.4483  10.4483
    10.4483  10.5574  10.5574  10.5574  10.8879  10.8879  11.0142  11.0142
    11.0142  11.1553  11.2402  11.2402  11.2403  11.3612  11.3612  11.3612
    13.5601  13.5601  13.6207  13.6207  13.6207  13.7062  13.7062  13.7062
    13.7714  17.8033  17.8051  17.8051  17.8051

          k = 0.2500-0.2500-0.2500 (  2764 PWs)   bands (ev):

    -7.4053  -7.4053  -6.6208  -6.6208  -6.6165  -6.6165  -6.6121  -6.6121
     5.0689   5.0689   5.0821   5.0821   5.0924   5.0924   6.1139   6.1139
     6.3285   6.3285   6.3946   6.3946   6.4720   6.4720   6.8452   6.8452
     7.0235   7.0235   7.3359   7.3359   7.4960   7.4960   7.6613   7.6613
     9.5868   9.5868   9.7785   9.7785   9.8504   9.8504   9.9793   9.9794
    10.1191  10.1192  10.1694  10.1694  10.4892  10.4893  10.6086  10.6086
    10.6393  10.6393  10.8363  10.8363  10.9364  10.9364  11.2187  11.2187
    11.2314  11.2314  11.2758  11.2758  11.3067  11.3067  11.4176  11.4176
    13.0582  13.0582  13.0625  13.0625  13.0698  13.0699  13.0825  13.0825
    16.5010  16.5010  19.6616  19.6616  19.7221

          k = 0.0000 0.0000-0.5000 (  2762 PWs)   bands (ev):

    -7.2680  -7.2680  -6.7714  -6.7714  -6.7713  -6.7713  -6.4669  -6.4669
     5.0306   5.0306   5.0414   5.0414   5.7849   5.7850   6.1217   6.1217
     6.1253   6.1253   6.4155   6.4155   6.6464   6.6464   6.6804   6.6804
     6.7396   6.7396   6.7463   6.7463   8.1732   8.1732   8.1832   8.1832
     9.2085   9.2085   9.8945   9.8945   9.9761   9.9762   9.9993   9.9994
    10.0148  10.0148  10.1273  10.1273  10.3156  10.3157  10.4480  10.4481
    10.4803  10.4804  10.5520  10.5520  10.8894  10.8894  10.9758  10.9758
    11.1285  11.1285  11.2117  11.2117  11.3110  11.3110  11.3260  11.3260
    12.4738  12.4738  12.7313  12.7313  13.5319  13.5319  13.6336  13.6337
    17.6875  17.6875  19.2701  19.2701  19.2705

          k =-0.2500-0.2500-0.2500 (  2764 PWs)   bands (ev):

    -7.4098  -7.4009  -6.6270  -6.6270  -6.6270  -6.6058  -6.6058  -6.6058
     5.0284   5.0284   5.0284   5.1342   5.1342   5.1342   6.0959   6.1362
     6.2604   6.2604   6.2604   6.7137   6.7137   6.7137   6.7417   6.7417
     6.7417   6.9614   6.9614   7.4785   7.4785   7.4785   7.8938   7.8938
     9.4414   9.4414   9.4414   9.6216   9.6216  10.0651  10.0651  10.0652
    10.0807  10.4308  10.4308  10.4308  10.4628  10.4628  10.4628  10.7043
    10.7043  10.8017  10.8017  10.8017  10.8523  11.0305  11.0305  11.0305
    11.2203  11.2203  11.2203  11.2884  11.2884  11.3797  11.3797  11.3797
    13.0577  13.0577  13.0577  13.0776  13.0776  13.0879  13.0879  13.0879
    16.4241  16.5808  19.6400  19.6400  19.6400

     the Fermi energy is    11.9463 ev

!    total energy              =    -941.99619924 Ry
     Harris-Foulkes estimate   =    -941.99616262 Ry
     estimated scf accuracy    <          1.6E-09 Ry

     The total energy is the sum of the following terms:

     one-electron contribution =     -56.24602205 Ry
     hartree contribution      =     175.69537126 Ry
     xc contribution           =    -297.58814261 Ry
     ewald contribution        =    -763.85740583 Ry
     Hubbard energy            =       0.00000000 Ry
     smearing contrib. (-TS)   =       0.00000000 Ry

     total magnetization       =     0.00 Bohr mag/cell
     absolute magnetization    =    12.66 Bohr mag/cell

     convergence has been achieved in  13 iterations

     Writing output data file nio.save
 
     init_run     :     15.54s CPU     16.91s WALL (       1 calls)
     electrons    :    328.20s CPU    348.08s WALL (       1 calls)

     Called by init_run:
     wfcinit      :      1.78s CPU      1.87s WALL (       1 calls)
     potinit      :      1.26s CPU      1.50s WALL (       1 calls)

     Called by electrons:
     c_bands      :     48.32s CPU     51.49s WALL (      13 calls)
     sum_band     :    139.90s CPU    142.19s WALL (      13 calls)
     v_of_rho     :     12.90s CPU     14.49s WALL (      14 calls)
     newd         :    131.89s CPU    145.04s WALL (      14 calls)
     mix_rho      :      2.28s CPU      2.52s WALL (      13 calls)

     Called by c_bands:
     init_us_2    :      0.62s CPU      0.63s WALL (      56 calls)
     cegterg      :     45.79s CPU     48.58s WALL (      26 calls)

     Called by *egterg:
     h_psi        :     36.25s CPU     37.83s WALL (      91 calls)
     s_psi        :      2.85s CPU      2.88s WALL (      93 calls)
     g_psi        :      0.16s CPU      0.15s WALL (      63 calls)
     cdiaghg      :      2.00s CPU      1.97s WALL (      89 calls)

     Called by h_psi:
     add_vuspsi   :      2.71s CPU      2.73s WALL (      91 calls)

     General routines
     calbec       :      4.94s CPU      4.97s WALL (     236 calls)
     fft          :     11.75s CPU     13.23s WALL (     424 calls)
     ffts         :      0.13s CPU      0.17s WALL (      54 calls)
     fftw         :     19.71s CPU     21.95s WALL (   11350 calls)
     interpolate  :      2.11s CPU      2.66s WALL (      54 calls)
     davcio       :      0.00s CPU      0.83s WALL (     164 calls)
 
     Parallel routines
     fft_scatter  :      6.07s CPU      7.11s WALL (   11828 calls)
     EXX routines
 
     PWSCF        :  5m44.06s CPU     6m 5.45s WALL

 
   This run was terminated on:  11:52:40  17Jun2012            

=------------------------------------------------------------------------------=
   JOB DONE.
=------------------------------------------------------------------------------=
