
     Program PWSCF v.5.0        starts on 17Jun2012 at 12:14:12 

     This program is part of the open-source Quantum ESPRESSO suite
     for quantum simulation of materials; please cite
         "P. Giannozzi et al., J. Phys.:Condens. Matter 21 395502 (2009);
          URL http://www.quantum-espresso.org", 
     in publications or presentations arising from this work. More details at
     http://www.quantum-espresso.org/quote.php

     Parallel version (MPI), running on     4 processors
     K-points division:     npool     =    4

     Current dimensions of program PWSCF are:
     Max number of different atomic species (ntypx) = 10
     Max number of k-points (npk) =  40000
     Max angular momentum in pseudopotentials (lmaxx) =  3
     Waiting for input...
     Reading input from standard input
               file Ni.pbe-nd-rrkjus.UPF: wavefunction(s)  4S renormalized
               file Ni.pbe-nd-rrkjus.UPF: wavefunction(s)  4S renormalized
               file O.pbe-rrkjus.UPF: wavefunction(s)  2S renormalized
               file O.pbe-rrkjus.UPF: wavefunction(s)  2S renormalized

     Subspace diagonalization in iterative solution of the eigenvalue problem:
     a serial algorithm will be used

 
     G-vector sticks info
     --------------------
     sticks:   dense  smooth     PW     G-vecs:    dense   smooth      PW
     Sum        2587    1039    295                86547    22075    3287
 


     bravais-lattice index     =            0
     lattice parameter (alat)  =       7.9000  a.u.
     unit-cell volume          =     986.0780 (a.u.)^3
     number of atoms/cell      =           16
     number of atomic types    =            4
     number of electrons       =       128.00
     number of Kohn-Sham states=           77
     kinetic-energy cutoff     =      30.0000  Ry
     charge density cutoff     =     300.0000  Ry
     convergence threshold     =      1.0E-08
     mixing beta               =       0.3000
     number of iterations used =            8  plain     mixing
     Exchange-correlation      =  SLA  PW   PBE  PBE ( 1 4 3 4 0)
     EXX-fraction              =        0.00

     celldm(1)=   7.900000  celldm(2)=   0.000000  celldm(3)=   0.000000
     celldm(4)=   0.000000  celldm(5)=   0.000000  celldm(6)=   0.000000

     crystal axes: (cart. coord. in units of alat)
               a(1) = (   1.000000   1.000000   0.000000 )  
               a(2) = (   1.000000   0.000000   1.000000 )  
               a(3) = (   0.000000   1.000000   1.000000 )  

     reciprocal axes: (cart. coord. in units 2 pi/alat)
               b(1) = (  0.500000  0.500000 -0.500000 )  
               b(2) = (  0.500000 -0.500000  0.500000 )  
               b(3) = ( -0.500000  0.500000  0.500000 )  


     PseudoPot. # 1 for Ni read from file:
     ../pseudo/Ni.pbe-nd-rrkjus.UPF
     MD5 check sum: 8081f0a005c9a5470caab1a58e82ecb2
     Pseudo is Ultrasoft + core correction, Zval = 10.0
     Generated by new atomic code, or converted to UPF format
     Using radial grid of 1203 points,  6 beta functions with: 
                l(1) =   0
                l(2) =   0
                l(3) =   1
                l(4) =   1
                l(5) =   2
                l(6) =   2
     Q(r) pseudized with 0 coefficients 


     PseudoPot. # 2 for Ni read from file:
     ../pseudo/Ni.pbe-nd-rrkjus.UPF
     MD5 check sum: 8081f0a005c9a5470caab1a58e82ecb2
     Pseudo is Ultrasoft + core correction, Zval = 10.0
     Generated by new atomic code, or converted to UPF format
     Using radial grid of 1203 points,  6 beta functions with: 
                l(1) =   0
                l(2) =   0
                l(3) =   1
                l(4) =   1
                l(5) =   2
                l(6) =   2
     Q(r) pseudized with 0 coefficients 


     PseudoPot. # 3 for O  read from file:
     ../pseudo/O.pbe-rrkjus.UPF
     MD5 check sum: 390ba29e75625707450f3bd3f0eb6be9
     Pseudo is Ultrasoft, Zval =  6.0
     Generated by new atomic code, or converted to UPF format
     Using radial grid of 1269 points,  4 beta functions with: 
                l(1) =   0
                l(2) =   0
                l(3) =   1
                l(4) =   1
     Q(r) pseudized with 0 coefficients 


     PseudoPot. # 4 for O  read from file:
     ../pseudo/O.pbe-rrkjus.UPF
     MD5 check sum: 390ba29e75625707450f3bd3f0eb6be9
     Pseudo is Ultrasoft, Zval =  6.0
     Generated by new atomic code, or converted to UPF format
     Using radial grid of 1269 points,  4 beta functions with: 
                l(1) =   0
                l(2) =   0
                l(3) =   1
                l(4) =   1
     Q(r) pseudized with 0 coefficients 


     atomic species   valence    mass     pseudopotential
        Ni1           10.00     1.00000     Ni( 1.00)
        Ni2           10.00     1.00000     Ni( 1.00)
        O1             6.00     1.00000     O ( 1.00)
        O2             6.00     1.00000     O ( 1.00)

     Starting magnetic structure 
     atomic species   magnetization
        Ni1          0.500
        Ni2         -0.500
        O1           0.000
        O2           0.000
 -----
     simplified LDA+U calculation, Hubbard_lmax = 2
     atomic species  L   Hubbard U  Hubbard alpha
        Ni1          2    0.000000    0.000000
        Ni2          2    0.000000    0.000000
        O1           1    0.000000   -0.150000
        O2           1    0.000000    0.000000
 -----

      6 Sym. Ops. (no inversion) found



   Cartesian axes

     site n.     atom                  positions (alat units)
         1           Ni1 tau(   1) = (   0.0000000   0.0000000  -0.5000000  )
         2           Ni1 tau(   2) = (   1.0000000   0.5000000   0.0000000  )
         3           Ni1 tau(   3) = (   0.5000000   1.0000000   0.0000000  )
         4           Ni1 tau(   4) = (   0.5000000   0.5000000   0.5000000  )
         5           Ni2 tau(   5) = (   0.5000000   0.5000000  -0.5000000  )
         6           Ni2 tau(   6) = (   0.5000000   0.0000000   0.0000000  )
         7           Ni2 tau(   7) = (   0.0000000   0.5000000   0.0000000  )
         8           Ni2 tau(   8) = (   1.0000000   1.0000000   0.5000000  )
         9           O1  tau(   9) = (   0.0000000   0.0000000   0.0000000  )
        10           O2  tau(  10) = (   0.5000000   0.5000000   0.0000000  )
        11           O2  tau(  11) = (   0.0000000   0.5000000   0.5000000  )
        12           O2  tau(  12) = (   0.5000000   0.0000000   0.5000000  )
        13           O2  tau(  13) = (   1.0000000   0.5000000   0.5000000  )
        14           O2  tau(  14) = (   0.5000000   1.0000000   0.5000000  )
        15           O2  tau(  15) = (   0.5000000   0.5000000   1.0000000  )
        16           O2  tau(  16) = (   1.0000000   1.0000000   1.0000000  )

     number of k points=     8  gaussian smearing, width (Ry)=  0.0100
                       cart. coord. in units 2pi/alat
        k(    1) = (   0.0000000   0.0000000   0.0000000), wk =   0.1250000
        k(    2) = (   0.2500000  -0.2500000  -0.2500000), wk =   0.3750000
        k(    3) = (   0.0000000   0.0000000  -0.5000000), wk =   0.3750000
        k(    4) = (  -0.2500000  -0.2500000  -0.2500000), wk =   0.1250000
        k(    5) = (   0.0000000   0.0000000   0.0000000), wk =   0.1250000
        k(    6) = (   0.2500000  -0.2500000  -0.2500000), wk =   0.3750000
        k(    7) = (   0.0000000   0.0000000  -0.5000000), wk =   0.3750000
        k(    8) = (  -0.2500000  -0.2500000  -0.2500000), wk =   0.1250000

     Dense  grid:    86547 G-vectors     FFT dimensions: (  64,  64,  64)

     Smooth grid:    22075 G-vectors     FFT dimensions: (  40,  40,  40)

     Largest allocated arrays     est. size (Mb)     dimensions
        Kohn-Sham Wavefunctions         3.25 Mb     (   2764,   77)
        Atomic wavefunctions            3.37 Mb     (   2764,   80)
        NL pseudopotentials             8.77 Mb     (   2764,  208)
        Each V/rho on FFT grid          8.00 Mb     ( 262144,   2)
        Each G-vector array             0.66 Mb     (  86547)
        G-vector shells                 0.00 Mb     (    635)
     Largest temporary arrays     est. size (Mb)     dimensions
        Auxiliary wavefunctions        12.99 Mb     (   2764,  308)
        Each subspace H/S matrix        1.45 Mb     ( 308, 308)
        Each <psi_i|beta_j> matrix      0.24 Mb     (    208,   77)
        Arrays for rho mixing          32.00 Mb     ( 262144,   8)

     Check: negative/imaginary core charge=   -0.000047    0.000000

     The initial density is read from file :
     ./temp/nio.save/charge-density.dat

     Number of +U iterations with fixed ns =  0
     Starting occupations:
 --- enter write_ns ---
 LDA+U parameters:
U( 1)     =  0.00000000
alpha( 1) =  0.00000000
U( 2)     =  0.00000000
alpha( 2) =  0.00000000
U( 3)     =  0.00000000
alpha( 3) = -0.15000000
U( 4)     =  0.00000000
alpha( 4) =  0.00000000
atom    1   Tr[ns(na)] (up, down, total) =   4.96210  3.72838  8.69048
   spin  1
    eigenvalues: 
  0.985  0.985  0.997  0.997  0.997
    eigenvectors:
  1.000  0.000  0.000  0.000  0.000
  0.000  0.000  0.500  0.170  0.330
  0.000  0.000  0.500  0.170  0.330
  0.000  1.000  0.000  0.000  0.000
  0.000  0.000  0.000  0.660  0.339
    occupations:
  0.985  0.000  0.000  0.000  0.000
  0.000  0.997  0.000  0.000  0.000
  0.000  0.000  0.997  0.000  0.000
  0.000  0.000  0.000  0.985  0.000
  0.000  0.000  0.000  0.000  0.997
   spin  2
    eigenvalues: 
  0.370  0.370  0.996  0.996  0.996
    eigenvectors:
  0.000  1.000  0.000  0.000  0.000
  0.000  0.000  0.167  0.500  0.333
  0.000  0.000  0.167  0.500  0.333
  1.000  0.000  0.000  0.000  0.000
  0.000  0.000  0.667  0.000  0.333
    occupations:
  0.370  0.000  0.000  0.000  0.001
  0.000  0.996  0.000  0.001  0.000
  0.000  0.000  0.996 -0.001  0.000
  0.000  0.001 -0.001  0.370  0.000
  0.001  0.000  0.000  0.000  0.996
atomic mag. moment =     1.233727
atom    2   Tr[ns(na)] (up, down, total) =   4.96210  3.72838  8.69048
   spin  1
    eigenvalues: 
  0.985  0.985  0.997  0.997  0.997
    eigenvectors:
  0.250  0.750  0.000  0.000  0.000
  0.000  0.000  0.000  0.660  0.339
  0.000  0.000  0.500  0.170  0.330
  0.750  0.250  0.000  0.000  0.000
  0.000  0.000  0.500  0.170  0.330
    occupations:
  0.985  0.000  0.000  0.000  0.000
  0.000  0.997  0.000  0.000  0.000
  0.000  0.000  0.997  0.000  0.000
  0.000  0.000  0.000  0.985  0.000
  0.000  0.000  0.000  0.000  0.997
   spin  2
    eigenvalues: 
  0.370  0.370  0.996  0.996  0.996
    eigenvectors:
  0.750  0.250  0.000  0.000  0.000
  0.000  0.000  0.667  0.000  0.333
  0.000  0.000  0.167  0.500  0.333
  0.250  0.750  0.000  0.000  0.000
  0.000  0.000  0.167  0.500  0.333
    occupations:
  0.370  0.000  0.000  0.000  0.001
  0.000  0.996  0.000  0.001  0.000
  0.000  0.000  0.996 -0.001  0.000
  0.000  0.001 -0.001  0.370  0.000
  0.001  0.000  0.000  0.000  0.996
atomic mag. moment =     1.233727
atom    3   Tr[ns(na)] (up, down, total) =   4.96210  3.72838  8.69048
   spin  1
    eigenvalues: 
  0.985  0.985  0.997  0.997  0.997
    eigenvectors:
  0.250  0.750  0.000  0.000  0.000
  0.000  0.000  0.500  0.170  0.330
  0.000  0.000  0.000  0.660  0.339
  0.750  0.250  0.000  0.000  0.000
  0.000  0.000  0.500  0.170  0.330
    occupations:
  0.985  0.000  0.000  0.000  0.000
  0.000  0.997  0.000  0.000  0.000
  0.000  0.000  0.997  0.000  0.000
  0.000  0.000  0.000  0.985  0.000
  0.000  0.000  0.000  0.000  0.997
   spin  2
    eigenvalues: 
  0.370  0.370  0.996  0.996  0.996
    eigenvectors:
  0.750  0.250  0.000  0.000  0.000
  0.000  0.000  0.167  0.500  0.333
  0.000  0.000  0.667  0.000  0.333
  0.250  0.750  0.000  0.000  0.000
  0.000  0.000  0.167  0.500  0.333
    occupations:
  0.370  0.000  0.000  0.000  0.001
  0.000  0.996  0.000  0.001  0.000
  0.000  0.000  0.996 -0.001  0.000
  0.000  0.001 -0.001  0.370  0.000
  0.001  0.000  0.000  0.000  0.996
atomic mag. moment =     1.233727
atom    4   Tr[ns(na)] (up, down, total) =   4.96210  3.72838  8.69048
   spin  1
    eigenvalues: 
  0.985  0.985  0.997  0.997  0.997
    eigenvectors:
  0.160  0.840  0.000  0.000  0.000
  0.000  0.000  0.526  0.140  0.333
  0.000  0.000  0.001  0.665  0.333
  0.840  0.160  0.000  0.000  0.000
  0.000  0.000  0.472  0.195  0.333
    occupations:
  0.985  0.000  0.000  0.000  0.000
  0.000  0.997  0.000  0.000  0.000
  0.000  0.000  0.997  0.000  0.000
  0.000  0.000  0.000  0.985  0.000
  0.000  0.000  0.000  0.000  0.997
   spin  2
    eigenvalues: 
  0.370  0.370  0.996  0.996  0.996
    eigenvectors:
  0.203  0.797  0.000  0.000  0.000
  0.000  0.000  0.144  0.522  0.333
  0.000  0.000  0.190  0.477  0.333
  0.797  0.203  0.000  0.000  0.000
  0.000  0.000  0.666  0.001  0.333
    occupations:
  0.370  0.000  0.000  0.000  0.001
  0.000  0.996  0.000  0.001  0.000
  0.000  0.000  0.996 -0.001  0.000
  0.000  0.001 -0.001  0.370  0.000
  0.001  0.000  0.000  0.000  0.996
atomic mag. moment =     1.233726
atom    5   Tr[ns(na)] (up, down, total) =   3.72838  4.96211  8.69049
   spin  1
    eigenvalues: 
  0.370  0.370  0.996  0.996  0.996
    eigenvectors:
  0.140  0.860  0.000  0.000  0.000
  0.000  0.000  0.119  0.548  0.333
  0.000  0.000  0.220  0.447  0.333
  0.860  0.140  0.000  0.000  0.000
  0.000  0.000  0.662  0.005  0.333
    occupations:
  0.370  0.000  0.000  0.000  0.001
  0.000  0.996  0.000  0.001  0.000
  0.000  0.000  0.996 -0.001  0.000
  0.000  0.001 -0.001  0.370  0.000
  0.001  0.000  0.000  0.000  0.996
   spin  2
    eigenvalues: 
  0.985  0.985  0.997  0.997  0.997
    eigenvectors:
  0.323  0.677  0.000  0.000  0.000
  0.000  0.000  0.060  0.606  0.333
  0.000  0.000  0.304  0.363  0.333
  0.677  0.323  0.000  0.000  0.000
  0.000  0.000  0.635  0.031  0.333
    occupations:
  0.985  0.000  0.000  0.000  0.000
  0.000  0.997  0.000  0.000  0.000
  0.000  0.000  0.997  0.000  0.000
  0.000  0.000  0.000  0.985  0.000
  0.000  0.000  0.000  0.000  0.997
atomic mag. moment =    -1.233725
atom    6   Tr[ns(na)] (up, down, total) =   3.72838  4.96211  8.69049
   spin  1
    eigenvalues: 
  0.370  0.370  0.996  0.996  0.996
    eigenvectors:
  0.750  0.250  0.000  0.000  0.000
  0.000  0.000  0.500  0.167  0.333
  0.000  0.000  0.000  0.667  0.333
  0.250  0.750  0.000  0.000  0.000
  0.000  0.000  0.500  0.167  0.333
    occupations:
  0.370  0.000  0.000  0.000  0.001
  0.000  0.996  0.000  0.001  0.000
  0.000  0.000  0.996 -0.001  0.000
  0.000  0.001 -0.001  0.370  0.000
  0.001  0.000  0.000  0.000  0.996
   spin  2
    eigenvalues: 
  0.985  0.985  0.997  0.997  0.997
    eigenvectors:
  0.250  0.750  0.000  0.000  0.000
  0.000  0.000  0.500  0.166  0.334
  0.000  0.000  0.000  0.668  0.332
  0.750  0.250  0.000  0.000  0.000
  0.000  0.000  0.500  0.166  0.334
    occupations:
  0.985  0.000  0.000  0.000  0.000
  0.000  0.997  0.000  0.000  0.000
  0.000  0.000  0.997  0.000  0.000
  0.000  0.000  0.000  0.985  0.000
  0.000  0.000  0.000  0.000  0.997
atomic mag. moment =    -1.233723
atom    7   Tr[ns(na)] (up, down, total) =   3.72838  4.96211  8.69049
   spin  1
    eigenvalues: 
  0.370  0.370  0.996  0.996  0.996
    eigenvectors:
  0.750  0.250  0.000  0.000  0.000
  0.000  0.000  0.000  0.667  0.333
  0.000  0.000  0.500  0.167  0.333
  0.250  0.750  0.000  0.000  0.000
  0.000  0.000  0.500  0.167  0.333
    occupations:
  0.370  0.000  0.000  0.000  0.001
  0.000  0.996  0.000  0.001  0.000
  0.000  0.000  0.996 -0.001  0.000
  0.000  0.001 -0.001  0.370  0.000
  0.001  0.000  0.000  0.000  0.996
   spin  2
    eigenvalues: 
  0.985  0.985  0.997  0.997  0.997
    eigenvectors:
  0.250  0.750  0.000  0.000  0.000
  0.000  0.000  0.000  0.668  0.332
  0.000  0.000  0.500  0.166  0.334
  0.750  0.250  0.000  0.000  0.000
  0.000  0.000  0.500  0.166  0.334
    occupations:
  0.985  0.000  0.000  0.000  0.000
  0.000  0.997  0.000  0.000  0.000
  0.000  0.000  0.997  0.000  0.000
  0.000  0.000  0.000  0.985  0.000
  0.000  0.000  0.000  0.000  0.997
atomic mag. moment =    -1.233723
atom    8   Tr[ns(na)] (up, down, total) =   3.72838  4.96211  8.69049
   spin  1
    eigenvalues: 
  0.370  0.370  0.996  0.996  0.996
    eigenvectors:
  0.000  1.000  0.000  0.000  0.000
  0.000  0.000  0.500  0.167  0.333
  0.000  0.000  0.500  0.167  0.333
  1.000  0.000  0.000  0.000  0.000
  0.000  0.000  0.000  0.667  0.333
    occupations:
  0.370  0.000  0.000  0.000  0.001
  0.000  0.996  0.000  0.001  0.000
  0.000  0.000  0.996 -0.001  0.000
  0.000  0.001 -0.001  0.370  0.000
  0.001  0.000  0.000  0.000  0.996
   spin  2
    eigenvalues: 
  0.985  0.985  0.997  0.997  0.997
    eigenvectors:
  1.000  0.000  0.000  0.000  0.000
  0.000  0.000  0.500  0.166  0.334
  0.000  0.000  0.500  0.166  0.334
  0.000  1.000  0.000  0.000  0.000
  0.000  0.000  0.000  0.668  0.332
    occupations:
  0.985  0.000  0.000  0.000  0.000
  0.000  0.997  0.000  0.000  0.000
  0.000  0.000  0.997  0.000  0.000
  0.000  0.000  0.000  0.985  0.000
  0.000  0.000  0.000  0.000  0.997
atomic mag. moment =    -1.233723
atom    9   Tr[ns(na)] (up, down, total) =   2.81403  2.81403  5.62805
   spin  1
    eigenvalues: 
  0.938  0.938  0.938
    eigenvectors:
  0.397  0.270  0.333
  0.585  0.081  0.333
  0.018  0.648  0.333
    occupations:
  0.938  0.000  0.000
  0.000  0.938  0.000
  0.000  0.000  0.938
   spin  2
    eigenvalues: 
  0.938  0.938  0.938
    eigenvectors:
  0.394  0.273  0.333
  0.587  0.080  0.333
  0.019  0.647  0.333
    occupations:
  0.938  0.000  0.000
  0.000  0.938  0.000
  0.000  0.000  0.938
atomic mag. moment =    -0.000001
atom   10   Tr[ns(na)] (up, down, total) =   2.81402  2.81403  5.62805
   spin  1
    eigenvalues: 
  0.938  0.938  0.938
    eigenvectors:
  0.000  0.666  0.334
  0.500  0.167  0.333
  0.500  0.167  0.333
    occupations:
  0.938  0.000  0.000
  0.000  0.938  0.000
  0.000  0.000  0.938
   spin  2
    eigenvalues: 
  0.938  0.938  0.938
    eigenvectors:
  0.000  0.667  0.333
  0.500  0.166  0.334
  0.500  0.166  0.334
    occupations:
  0.938  0.000  0.000
  0.000  0.938  0.000
  0.000  0.000  0.938
atomic mag. moment =    -0.000001
atom   11   Tr[ns(na)] (up, down, total) =   2.81402  2.81403  5.62805
   spin  1
    eigenvalues: 
  0.938  0.938  0.938
    eigenvectors:
  0.500  0.167  0.333
  0.000  0.666  0.334
  0.500  0.167  0.333
    occupations:
  0.938  0.000  0.000
  0.000  0.938  0.000
  0.000  0.000  0.938
   spin  2
    eigenvalues: 
  0.938  0.938  0.938
    eigenvectors:
  0.500  0.166  0.334
  0.000  0.667  0.333
  0.500  0.166  0.334
    occupations:
  0.938  0.000  0.000
  0.000  0.938  0.000
  0.000  0.000  0.938
atomic mag. moment =    -0.000001
atom   12   Tr[ns(na)] (up, down, total) =   2.81402  2.81403  5.62805
   spin  1
    eigenvalues: 
  0.938  0.938  0.938
    eigenvectors:
  0.500  0.167  0.333
  0.500  0.167  0.333
  0.000  0.666  0.334
    occupations:
  0.938  0.000  0.000
  0.000  0.938  0.000
  0.000  0.000  0.938
   spin  2
    eigenvalues: 
  0.938  0.938  0.938
    eigenvectors:
  0.500  0.166  0.334
  0.500  0.166  0.334
  0.000  0.667  0.333
    occupations:
  0.938  0.000  0.000
  0.000  0.938  0.000
  0.000  0.000  0.938
atomic mag. moment =    -0.000001
atom   13   Tr[ns(na)] (up, down, total) =   2.81402  2.81402  5.62805
   spin  1
    eigenvalues: 
  0.938  0.938  0.938
    eigenvectors:
  0.167  0.500  0.333
  0.666  0.000  0.334
  0.167  0.500  0.333
    occupations:
  0.938  0.000  0.000
  0.000  0.938  0.000
  0.000  0.000  0.938
   spin  2
    eigenvalues: 
  0.938  0.938  0.938
    eigenvectors:
  0.166  0.500  0.334
  0.667  0.000  0.333
  0.166  0.500  0.334
    occupations:
  0.938  0.000  0.000
  0.000  0.938  0.000
  0.000  0.000  0.938
atomic mag. moment =    -0.000001
atom   14   Tr[ns(na)] (up, down, total) =   2.81402  2.81402  5.62805
   spin  1
    eigenvalues: 
  0.938  0.938  0.938
    eigenvectors:
  0.167  0.500  0.333
  0.167  0.500  0.333
  0.666  0.000  0.334
    occupations:
  0.938  0.000  0.000
  0.000  0.938  0.000
  0.000  0.000  0.938
   spin  2
    eigenvalues: 
  0.938  0.938  0.938
    eigenvectors:
  0.166  0.500  0.334
  0.166  0.500  0.334
  0.667  0.000  0.333
    occupations:
  0.938  0.000  0.000
  0.000  0.938  0.000
  0.000  0.000  0.938
atomic mag. moment =    -0.000001
atom   15   Tr[ns(na)] (up, down, total) =   2.81402  2.81402  5.62805
   spin  1
    eigenvalues: 
  0.938  0.938  0.938
    eigenvectors:
  0.666  0.000  0.334
  0.167  0.500  0.333
  0.167  0.500  0.333
    occupations:
  0.938  0.000  0.000
  0.000  0.938  0.000
  0.000  0.000  0.938
   spin  2
    eigenvalues: 
  0.938  0.938  0.938
    eigenvectors:
  0.667  0.000  0.333
  0.166  0.500  0.334
  0.166  0.500  0.334
    occupations:
  0.938  0.000  0.000
  0.000  0.938  0.000
  0.000  0.000  0.938
atomic mag. moment =    -0.000001
atom   16   Tr[ns(na)] (up, down, total) =   2.81402  2.81402  5.62804
   spin  1
    eigenvalues: 
  0.938  0.938  0.938
    eigenvectors:
  0.394  0.272  0.333
  0.587  0.080  0.333
  0.019  0.648  0.333
    occupations:
  0.938  0.000  0.000
  0.000  0.938  0.000
  0.000  0.000  0.938
   spin  2
    eigenvalues: 
  0.938  0.938  0.938
    eigenvectors:
  0.384  0.283  0.333
  0.593  0.073  0.333
  0.023  0.644  0.333
    occupations:
  0.938  0.000  0.000
  0.000  0.938  0.000
  0.000  0.000  0.938
atomic mag. moment =    -0.000001
N of occupied +U levels = 114.5482719
 --- exit write_ns ---
 Atomic wfc used for LDA+U Projector are NOT orthogonalized
     Starting wfc from file

     total cpu time spent up to now is       14.6 secs

     per-process dynamical memory:    86.2 Mb

     Self-consistent Calculation

     iteration #  1     ecut=    30.00 Ry     beta=0.30
     Davidson diagonalization with overlap
     c_bands:  1 eigenvalues not converged
     ethr =  2.19E-11,  avg # of iterations = 17.0
 --- enter write_ns ---
 LDA+U parameters:
U( 1)     =  0.00000000
alpha( 1) =  0.00000000
U( 2)     =  0.00000000
alpha( 2) =  0.00000000
U( 3)     =  0.00000000
alpha( 3) = -0.15000000
U( 4)     =  0.00000000
alpha( 4) =  0.00000000
atom    1   Tr[ns(na)] (up, down, total) =   4.96209  3.72630  8.68839
   spin  1
    eigenvalues: 
  0.985  0.985  0.997  0.997  0.997
    eigenvectors:
  1.000  0.000  0.000  0.000  0.000
  0.000  0.000  0.500  0.042  0.458
  0.000  0.000  0.500  0.042  0.458
  0.000  1.000  0.000  0.000  0.000
  0.000  0.000  0.000  0.916  0.084
    occupations:
  0.985  0.000  0.000  0.000  0.000
  0.000  0.997  0.000  0.000  0.000
  0.000  0.000  0.997  0.000  0.000
  0.000  0.000  0.000  0.985  0.000
  0.000  0.000  0.000  0.000  0.997
   spin  2
    eigenvalues: 
  0.368  0.370  0.996  0.996  0.996
    eigenvectors:
  1.000  0.000  0.000  0.000  0.000
  0.000  0.000  0.148  0.500  0.352
  0.000  0.000  0.148  0.500  0.352
  0.000  1.000  0.000  0.000  0.000
  0.000  0.000  0.705  0.000  0.295
    occupations:
  0.368  0.000  0.000  0.000  0.001
  0.000  0.996  0.000  0.001  0.000
  0.000  0.000  0.996 -0.001  0.000
  0.000  0.001 -0.001  0.370  0.000
  0.001  0.000  0.000  0.000  0.996
atomic mag. moment =     1.235790
atom    2   Tr[ns(na)] (up, down, total) =   4.96209  3.72630  8.68839
   spin  1
    eigenvalues: 
  0.985  0.985  0.997  0.997  0.997
    eigenvectors:
  0.250  0.750  0.000  0.000  0.000
  0.000  0.000  0.000  0.916  0.084
  0.000  0.000  0.500  0.042  0.458
  0.750  0.250  0.000  0.000  0.000
  0.000  0.000  0.500  0.042  0.458
    occupations:
  0.985  0.000  0.000  0.000  0.000
  0.000  0.997  0.000  0.000  0.000
  0.000  0.000  0.997  0.000  0.000
  0.000  0.000  0.000  0.985  0.000
  0.000  0.000  0.000  0.000  0.997
   spin  2
    eigenvalues: 
  0.368  0.370  0.996  0.996  0.996
    eigenvectors:
  0.250  0.750  0.000  0.000  0.000
  0.000  0.000  0.705  0.000  0.295
  0.000  0.000  0.148  0.500  0.352
  0.750  0.250  0.000  0.000  0.000
  0.000  0.000  0.148  0.500  0.352
    occupations:
  0.370  0.000  0.000 -0.001  0.001
  0.000  0.996  0.000  0.001  0.000
  0.000  0.000  0.996 -0.001  0.000
 -0.001  0.001 -0.001  0.369  0.000
  0.001  0.000  0.000  0.000  0.996
atomic mag. moment =     1.235790
atom    3   Tr[ns(na)] (up, down, total) =   4.96209  3.72630  8.68839
   spin  1
    eigenvalues: 
  0.985  0.985  0.997  0.997  0.997
    eigenvectors:
  0.250  0.750  0.000  0.000  0.000
  0.000  0.000  0.500  0.042  0.458
  0.000  0.000  0.000  0.916  0.084
  0.750  0.250  0.000  0.000  0.000
  0.000  0.000  0.500  0.042  0.458
    occupations:
  0.985  0.000  0.000  0.000  0.000
  0.000  0.997  0.000  0.000  0.000
  0.000  0.000  0.997  0.000  0.000
  0.000  0.000  0.000  0.985  0.000
  0.000  0.000  0.000  0.000  0.997
   spin  2
    eigenvalues: 
  0.368  0.370  0.996  0.996  0.996
    eigenvectors:
  0.250  0.750  0.000  0.000  0.000
  0.000  0.000  0.148  0.500  0.352
  0.000  0.000  0.705  0.000  0.295
  0.750  0.250  0.000  0.000  0.000
  0.000  0.000  0.148  0.500  0.352
    occupations:
  0.370  0.000  0.000  0.001  0.001
  0.000  0.996  0.000  0.001  0.000
  0.000  0.000  0.996 -0.001  0.000
  0.001  0.001 -0.001  0.369  0.000
  0.001  0.000  0.000  0.000  0.996
atomic mag. moment =     1.235790
atom    4   Tr[ns(na)] (up, down, total) =   4.96210  3.72834  8.69044
   spin  1
    eigenvalues: 
  0.985  0.985  0.997  0.997  0.997
    eigenvectors:
  0.239  0.761  0.000  0.000  0.000
  0.000  0.000  0.355  0.311  0.333
  0.000  0.000  0.034  0.632  0.333
  0.761  0.239  0.000  0.000  0.000
  0.000  0.000  0.610  0.056  0.333
    occupations:
  0.985  0.000  0.000  0.000  0.000
  0.000  0.997  0.000  0.000  0.000
  0.000  0.000  0.997  0.000  0.000
  0.000  0.000  0.000  0.985  0.000
  0.000  0.000  0.000  0.000  0.997
   spin  2
    eigenvalues: 
  0.370  0.370  0.996  0.996  0.996
    eigenvectors:
  0.130  0.870  0.000  0.000  0.000
  0.000  0.000  0.118  0.549  0.333
  0.000  0.000  0.221  0.446  0.333
  0.870  0.130  0.000  0.000  0.000
  0.000  0.000  0.661  0.005  0.333
    occupations:
  0.370  0.000  0.000  0.000  0.001
  0.000  0.996  0.000  0.001  0.000
  0.000  0.000  0.996 -0.001  0.000
  0.000  0.001 -0.001  0.370  0.000
  0.001  0.000  0.000  0.000  0.996
atomic mag. moment =     1.233761
atom    5   Tr[ns(na)] (up, down, total) =   3.72833  4.96210  8.69043
   spin  1
    eigenvalues: 
  0.370  0.370  0.996  0.996  0.996
    eigenvectors:
  0.328  0.672  0.000  0.000  0.000
  0.000  0.000  0.158  0.508  0.333
  0.000  0.000  0.175  0.491  0.333
  0.672  0.328  0.000  0.000  0.000
  0.000  0.000  0.667  0.000  0.333
    occupations:
  0.370  0.000  0.000  0.000  0.001
  0.000  0.996  0.000  0.001  0.000
  0.000  0.000  0.996 -0.001  0.000
  0.000  0.001 -0.001  0.370  0.000
  0.001  0.000  0.000  0.000  0.996
   spin  2
    eigenvalues: 
  0.985  0.985  0.997  0.997  0.997
    eigenvectors:
  0.040  0.960  0.000  0.000  0.000
  0.000  0.000  0.122  0.544  0.333
  0.000  0.000  0.215  0.451  0.333
  0.960  0.040  0.000  0.000  0.000
  0.000  0.000  0.662  0.004  0.333
    occupations:
  0.985  0.000  0.000  0.000  0.000
  0.000  0.997  0.000  0.000  0.000
  0.000  0.000  0.997  0.000  0.000
  0.000  0.000  0.000  0.985  0.000
  0.000  0.000  0.000  0.000  0.997
atomic mag. moment =    -1.233770
atom    6   Tr[ns(na)] (up, down, total) =   3.72627  4.96208  8.68836
   spin  1
    eigenvalues: 
  0.368  0.370  0.996  0.996  0.996
    eigenvectors:
  0.250  0.750  0.000  0.000  0.000
  0.000  0.000  0.147  0.500  0.353
  0.000  0.000  0.706  0.000  0.294
  0.750  0.250  0.000  0.000  0.000
  0.000  0.000  0.147  0.500  0.353
    occupations:
  0.370  0.000  0.000  0.001  0.001
  0.000  0.996  0.000  0.001  0.000
  0.000  0.000  0.996 -0.001  0.000
  0.001  0.001 -0.001  0.369  0.000
  0.001  0.000  0.000  0.000  0.996
   spin  2
    eigenvalues: 
  0.985  0.985  0.997  0.997  0.997
    eigenvectors:
  0.250  0.750  0.000  0.000  0.000
  0.000  0.000  0.500  0.047  0.453
  0.000  0.000  0.000  0.907  0.093
  0.750  0.250  0.000  0.000  0.000
  0.000  0.000  0.500  0.047  0.453
    occupations:
  0.985  0.000  0.000  0.000  0.000
  0.000  0.997  0.000  0.000  0.000
  0.000  0.000  0.997  0.000  0.000
  0.000  0.000  0.000  0.985  0.000
  0.000  0.000  0.000  0.000  0.997
atomic mag. moment =    -1.235810
atom    7   Tr[ns(na)] (up, down, total) =   3.72627  4.96208  8.68836
   spin  1
    eigenvalues: 
  0.368  0.370  0.996  0.996  0.996
    eigenvectors:
  0.250  0.750  0.000  0.000  0.000
  0.000  0.000  0.706  0.000  0.294
  0.000  0.000  0.147  0.500  0.353
  0.750  0.250  0.000  0.000  0.000
  0.000  0.000  0.147  0.500  0.353
    occupations:
  0.370  0.000  0.000 -0.001  0.001
  0.000  0.996  0.000  0.001  0.000
  0.000  0.000  0.996 -0.001  0.000
 -0.001  0.001 -0.001  0.369  0.000
  0.001  0.000  0.000  0.000  0.996
   spin  2
    eigenvalues: 
  0.985  0.985  0.997  0.997  0.997
    eigenvectors:
  0.250  0.750  0.000  0.000  0.000
  0.000  0.000  0.000  0.907  0.093
  0.000  0.000  0.500  0.047  0.453
  0.750  0.250  0.000  0.000  0.000
  0.000  0.000  0.500  0.047  0.453
    occupations:
  0.985  0.000  0.000  0.000  0.000
  0.000  0.997  0.000  0.000  0.000
  0.000  0.000  0.997  0.000  0.000
  0.000  0.000  0.000  0.985  0.000
  0.000  0.000  0.000  0.000  0.997
atomic mag. moment =    -1.235810
atom    8   Tr[ns(na)] (up, down, total) =   3.72627  4.96208  8.68836
   spin  1
    eigenvalues: 
  0.368  0.370  0.996  0.996  0.996
    eigenvectors:
  1.000  0.000  0.000  0.000  0.000
  0.000  0.000  0.147  0.500  0.353
  0.000  0.000  0.147  0.500  0.353
  0.000  1.000  0.000  0.000  0.000
  0.000  0.000  0.706  0.000  0.294
    occupations:
  0.368  0.000  0.000  0.000  0.001
  0.000  0.996  0.000  0.001  0.000
  0.000  0.000  0.996 -0.001  0.000
  0.000  0.001 -0.001  0.370  0.000
  0.001  0.000  0.000  0.000  0.996
   spin  2
    eigenvalues: 
  0.985  0.985  0.997  0.997  0.997
    eigenvectors:
  1.000  0.000  0.000  0.000  0.000
  0.000  0.000  0.500  0.047  0.453
  0.000  0.000  0.500  0.047  0.453
  0.000  1.000  0.000  0.000  0.000
  0.000  0.000  0.000  0.907  0.093
    occupations:
  0.985  0.000  0.000  0.000  0.000
  0.000  0.997  0.000  0.000  0.000
  0.000  0.000  0.997  0.000  0.000
  0.000  0.000  0.000  0.985  0.000
  0.000  0.000  0.000  0.000  0.997
atomic mag. moment =    -1.235810
atom    9   Tr[ns(na)] (up, down, total) =   2.82040  2.82040  5.64080
   spin  1
    eigenvalues: 
  0.940  0.940  0.940
    eigenvectors:
  0.427  0.240  0.333
  0.564  0.103  0.333
  0.010  0.657  0.333
    occupations:
  0.940  0.000  0.000
  0.000  0.940  0.000
  0.000  0.000  0.940
   spin  2
    eigenvalues: 
  0.940  0.940  0.940
    eigenvectors:
  0.414  0.253  0.333
  0.573  0.094  0.333
  0.013  0.654  0.333
    occupations:
  0.940  0.000  0.000
  0.000  0.940  0.000
  0.000  0.000  0.940
atomic mag. moment =     0.000005
atom   10   Tr[ns(na)] (up, down, total) =   2.81400  2.81400  5.62800
   spin  1
    eigenvalues: 
  0.938  0.938  0.938
    eigenvectors:
  0.000  0.825  0.175
  0.500  0.088  0.412
  0.500  0.088  0.412
    occupations:
  0.938  0.000  0.000
  0.000  0.938  0.000
  0.000  0.000  0.938
   spin  2
    eigenvalues: 
  0.938  0.938  0.938
    eigenvectors:
  0.000  0.823  0.177
  0.500  0.089  0.411
  0.500  0.089  0.411
    occupations:
  0.938  0.000  0.000
  0.000  0.938  0.000
  0.000  0.000  0.938
atomic mag. moment =     0.000005
atom   11   Tr[ns(na)] (up, down, total) =   2.81400  2.81400  5.62800
   spin  1
    eigenvalues: 
  0.938  0.938  0.938
    eigenvectors:
  0.500  0.088  0.412
  0.000  0.825  0.175
  0.500  0.088  0.412
    occupations:
  0.938  0.000  0.000
  0.000  0.938  0.000
  0.000  0.000  0.938
   spin  2
    eigenvalues: 
  0.938  0.938  0.938
    eigenvectors:
  0.500  0.089  0.411
  0.000  0.823  0.177
  0.500  0.089  0.411
    occupations:
  0.938  0.000  0.000
  0.000  0.938  0.000
  0.000  0.000  0.938
atomic mag. moment =     0.000005
atom   12   Tr[ns(na)] (up, down, total) =   2.81400  2.81400  5.62800
   spin  1
    eigenvalues: 
  0.938  0.938  0.938
    eigenvectors:
  0.500  0.088  0.412
  0.500  0.088  0.412
  0.000  0.825  0.175
    occupations:
  0.938  0.000  0.000
  0.000  0.938  0.000
  0.000  0.000  0.938
   spin  2
    eigenvalues: 
  0.938  0.938  0.938
    eigenvectors:
  0.500  0.089  0.411
  0.500  0.089  0.411
  0.000  0.823  0.177
    occupations:
  0.938  0.000  0.000
  0.000  0.938  0.000
  0.000  0.000  0.938
atomic mag. moment =     0.000005
atom   13   Tr[ns(na)] (up, down, total) =   2.81404  2.81403  5.62807
   spin  1
    eigenvalues: 
  0.938  0.938  0.938
    eigenvectors:
  0.248  0.500  0.252
  0.503  0.000  0.497
  0.248  0.500  0.252
    occupations:
  0.938  0.000  0.000
  0.000  0.938  0.000
  0.000  0.000  0.938
   spin  2
    eigenvalues: 
  0.938  0.938  0.938
    eigenvectors:
  0.251  0.500  0.249
  0.498  0.000  0.502
  0.251  0.500  0.249
    occupations:
  0.938  0.000  0.000
  0.000  0.938  0.000
  0.000  0.000  0.938
atomic mag. moment =     0.000005
atom   14   Tr[ns(na)] (up, down, total) =   2.81404  2.81403  5.62807
   spin  1
    eigenvalues: 
  0.938  0.938  0.938
    eigenvectors:
  0.248  0.500  0.252
  0.248  0.500  0.252
  0.503  0.000  0.497
    occupations:
  0.938  0.000  0.000
  0.000  0.938  0.000
  0.000  0.000  0.938
   spin  2
    eigenvalues: 
  0.938  0.938  0.938
    eigenvectors:
  0.251  0.500  0.249
  0.251  0.500  0.249
  0.498  0.000  0.502
    occupations:
  0.938  0.000  0.000
  0.000  0.938  0.000
  0.000  0.000  0.938
atomic mag. moment =     0.000005
atom   15   Tr[ns(na)] (up, down, total) =   2.81404  2.81403  5.62807
   spin  1
    eigenvalues: 
  0.938  0.938  0.938
    eigenvectors:
  0.503  0.000  0.497
  0.248  0.500  0.252
  0.248  0.500  0.252
    occupations:
  0.938  0.000  0.000
  0.000  0.938  0.000
  0.000  0.000  0.938
   spin  2
    eigenvalues: 
  0.938  0.938  0.938
    eigenvectors:
  0.498  0.000  0.502
  0.251  0.500  0.249
  0.251  0.500  0.249
    occupations:
  0.938  0.000  0.000
  0.000  0.938  0.000
  0.000  0.000  0.938
atomic mag. moment =     0.000005
atom   16   Tr[ns(na)] (up, down, total) =   2.81338  2.81338  5.62676
   spin  1
    eigenvalues: 
  0.938  0.938  0.938
    eigenvectors:
  0.419  0.247  0.333
  0.569  0.098  0.333
  0.011  0.655  0.333
    occupations:
  0.938  0.000  0.000
  0.000  0.938  0.000
  0.000  0.000  0.938
   spin  2
    eigenvalues: 
  0.938  0.938  0.938
    eigenvectors:
  0.414  0.252  0.333
  0.573  0.094  0.333
  0.013  0.654  0.333
    occupations:
  0.938  0.000  0.000
  0.000  0.938  0.000
  0.000  0.000  0.938
atomic mag. moment =     0.000006
N of occupied +U levels = 114.5468609
 --- exit write_ns ---

     total cpu time spent up to now is       49.0 secs

     total energy              =    -942.05821688 Ry
     Harris-Foulkes estimate   =    -942.05831826 Ry
     estimated scf accuracy    <       0.00022339 Ry

     total magnetization       =     0.00 Bohr mag/cell
     absolute magnetization    =    12.67 Bohr mag/cell

     iteration #  2     ecut=    30.00 Ry     beta=0.30
     Davidson diagonalization with overlap
     ethr =  1.75E-07,  avg # of iterations =  2.0

     total cpu time spent up to now is       74.8 secs

     total energy              =    -942.05826868 Ry
     Harris-Foulkes estimate   =    -942.05828421 Ry
     estimated scf accuracy    <       0.00004615 Ry

     total magnetization       =     0.00 Bohr mag/cell
     absolute magnetization    =    12.66 Bohr mag/cell

     iteration #  3     ecut=    30.00 Ry     beta=0.30
     Davidson diagonalization with overlap
     ethr =  3.61E-08,  avg # of iterations =  2.0

     total cpu time spent up to now is      100.3 secs

     total energy              =    -942.05827582 Ry
     Harris-Foulkes estimate   =    -942.05827597 Ry
     estimated scf accuracy    <       0.00000087 Ry

     total magnetization       =     0.00 Bohr mag/cell
     absolute magnetization    =    12.66 Bohr mag/cell

     iteration #  4     ecut=    30.00 Ry     beta=0.30
     Davidson diagonalization with overlap
     ethr =  6.82E-10,  avg # of iterations =  2.0

     total cpu time spent up to now is      125.8 secs

     total energy              =    -942.05827588 Ry
     Harris-Foulkes estimate   =    -942.05827590 Ry
     estimated scf accuracy    <       0.00000032 Ry

     total magnetization       =     0.00 Bohr mag/cell
     absolute magnetization    =    12.66 Bohr mag/cell

     iteration #  5     ecut=    30.00 Ry     beta=0.30
     Davidson diagonalization with overlap
     ethr =  2.48E-10,  avg # of iterations =  2.0

     total cpu time spent up to now is      151.3 secs

     total energy              =    -942.05827590 Ry
     Harris-Foulkes estimate   =    -942.05827590 Ry
     estimated scf accuracy    <       0.00000003 Ry

     total magnetization       =     0.00 Bohr mag/cell
     absolute magnetization    =    12.66 Bohr mag/cell

     iteration #  6     ecut=    30.00 Ry     beta=0.30
     Davidson diagonalization with overlap
     ethr =  2.62E-11,  avg # of iterations =  2.0

     total cpu time spent up to now is      176.3 secs

     End of self-consistent calculation
 --- enter write_ns ---
 LDA+U parameters:
U( 1)     =  0.00000000
alpha( 1) =  0.00000000
U( 2)     =  0.00000000
alpha( 2) =  0.00000000
U( 3)     =  0.00000000
alpha( 3) = -0.15000000
U( 4)     =  0.00000000
alpha( 4) =  0.00000000
atom    1   Tr[ns(na)] (up, down, total) =   4.96209  3.72739  8.68949
   spin  1
    eigenvalues: 
  0.985  0.985  0.997  0.997  0.997
    eigenvectors:
  0.000  1.000  0.000  0.000  0.000
  0.000  0.000  0.500  0.496  0.004
  0.000  0.000  0.500  0.496  0.004
  1.000  0.000  0.000  0.000  0.000
  0.000  0.000  0.000  0.007  0.993
    occupations:
  0.985  0.000  0.000  0.000  0.000
  0.000  0.997  0.000  0.000  0.000
  0.000  0.000  0.997  0.000  0.000
  0.000  0.000  0.000  0.985  0.000
  0.000  0.000  0.000  0.000  0.997
   spin  2
    eigenvalues: 
  0.369  0.371  0.996  0.996  0.996
    eigenvectors:
  1.000  0.000  0.000  0.000  0.000
  0.000  0.000  0.500  0.168  0.332
  0.000  0.000  0.500  0.168  0.332
  0.000  1.000  0.000  0.000  0.000
  0.000  0.000  0.000  0.664  0.336
    occupations:
  0.369  0.000  0.000  0.000  0.001
  0.000  0.996  0.000  0.001  0.000
  0.000  0.000  0.996 -0.001  0.000
  0.000  0.001 -0.001  0.371  0.000
  0.001  0.000  0.000  0.000  0.996
atomic mag. moment =     1.234702
atom    2   Tr[ns(na)] (up, down, total) =   4.96209  3.72739  8.68949
   spin  1
    eigenvalues: 
  0.985  0.985  0.997  0.997  0.997
    eigenvectors:
  0.750  0.250  0.000  0.000  0.000
  0.000  0.000  0.000  0.007  0.993
  0.000  0.000  0.500  0.496  0.004
  0.250  0.750  0.000  0.000  0.000
  0.000  0.000  0.500  0.496  0.004
    occupations:
  0.985  0.000  0.000  0.000  0.000
  0.000  0.997  0.000  0.000  0.000
  0.000  0.000  0.997  0.000  0.000
  0.000  0.000  0.000  0.985  0.000
  0.000  0.000  0.000  0.000  0.997
   spin  2
    eigenvalues: 
  0.369  0.371  0.996  0.996  0.996
    eigenvectors:
  0.250  0.750  0.000  0.000  0.000
  0.000  0.000  0.000  0.664  0.336
  0.000  0.000  0.500  0.168  0.332
  0.750  0.250  0.000  0.000  0.000
  0.000  0.000  0.500  0.168  0.332
    occupations:
  0.370  0.000  0.000  0.000  0.001
  0.000  0.996  0.000  0.001  0.000
  0.000  0.000  0.996 -0.001  0.000
  0.000  0.001 -0.001  0.370  0.000
  0.001  0.000  0.000  0.000  0.996
atomic mag. moment =     1.234702
atom    3   Tr[ns(na)] (up, down, total) =   4.96209  3.72739  8.68949
   spin  1
    eigenvalues: 
  0.985  0.985  0.997  0.997  0.997
    eigenvectors:
  0.750  0.250  0.000  0.000  0.000
  0.000  0.000  0.500  0.496  0.004
  0.000  0.000  0.000  0.007  0.993
  0.250  0.750  0.000  0.000  0.000
  0.000  0.000  0.500  0.496  0.004
    occupations:
  0.985  0.000  0.000  0.000  0.000
  0.000  0.997  0.000  0.000  0.000
  0.000  0.000  0.997  0.000  0.000
  0.000  0.000  0.000  0.985  0.000
  0.000  0.000  0.000  0.000  0.997
   spin  2
    eigenvalues: 
  0.369  0.371  0.996  0.996  0.996
    eigenvectors:
  0.250  0.750  0.000  0.000  0.000
  0.000  0.000  0.500  0.168  0.332
  0.000  0.000  0.000  0.664  0.336
  0.750  0.250  0.000  0.000  0.000
  0.000  0.000  0.500  0.168  0.332
    occupations:
  0.370  0.000  0.000  0.000  0.001
  0.000  0.996  0.000  0.001  0.000
  0.000  0.000  0.996 -0.001  0.000
  0.000  0.001 -0.001  0.370  0.000
  0.001  0.000  0.000  0.000  0.996
atomic mag. moment =     1.234702
atom    4   Tr[ns(na)] (up, down, total) =   4.96210  3.72839  8.69049
   spin  1
    eigenvalues: 
  0.985  0.985  0.997  0.997  0.997
    eigenvectors:
  0.247  0.752  0.000  0.000  0.000
  0.000  0.000  0.125  0.541  0.333
  0.000  0.000  0.212  0.455  0.333
  0.752  0.247  0.000  0.000  0.000
  0.000  0.000  0.663  0.004  0.333
    occupations:
  0.985  0.000  0.000  0.000  0.000
  0.000  0.997  0.000  0.000  0.000
  0.000  0.000  0.997  0.000  0.000
  0.000  0.000  0.000  0.985  0.000
  0.000  0.000  0.000  0.000  0.997
   spin  2
    eigenvalues: 
  0.371  0.371  0.996  0.996  0.996
    eigenvectors:
  0.511  0.489  0.000  0.000  0.000
  0.000  0.000  0.168  0.498  0.333
  0.000  0.000  0.165  0.502  0.333
  0.489  0.511  0.000  0.000  0.000
  0.000  0.000  0.667  0.000  0.333
    occupations:
  0.371  0.000  0.000  0.000  0.001
  0.000  0.996  0.000  0.001  0.000
  0.000  0.000  0.996 -0.001  0.000
  0.000  0.001 -0.001  0.371  0.000
  0.001  0.000  0.000  0.000  0.996
atomic mag. moment =     1.233714
atom    5   Tr[ns(na)] (up, down, total) =   3.72839  4.96210  8.69049
   spin  1
    eigenvalues: 
  0.370  0.370  0.996  0.996  0.996
    eigenvectors:
  0.012  0.988  0.000  0.000  0.000
  0.000  0.000  0.065  0.602  0.333
  0.000  0.000  0.296  0.370  0.333
  0.988  0.012  0.000  0.000  0.000
  0.000  0.000  0.639  0.028  0.333
    occupations:
  0.371  0.000  0.000  0.000  0.001
  0.000  0.996  0.000  0.001  0.000
  0.000  0.000  0.996 -0.001  0.000
  0.000  0.001 -0.001  0.371  0.000
  0.001  0.000  0.000  0.000  0.996
   spin  2
    eigenvalues: 
  0.985  0.985  0.997  0.997  0.997
    eigenvectors:
  0.097  0.902  0.000  0.000  0.000
  0.000  0.000  0.126  0.540  0.333
  0.000  0.000  0.210  0.456  0.333
  0.902  0.097  0.000  0.000  0.000
  0.000  0.000  0.663  0.004  0.333
    occupations:
  0.985  0.000  0.000  0.000  0.000
  0.000  0.997  0.000  0.000  0.000
  0.000  0.000  0.997  0.000  0.000
  0.000  0.000  0.000  0.985  0.000
  0.000  0.000  0.000  0.000  0.997
atomic mag. moment =    -1.233715
atom    6   Tr[ns(na)] (up, down, total) =   3.72740  4.96210  8.68950
   spin  1
    eigenvalues: 
  0.369  0.371  0.996  0.996  0.996
    eigenvectors:
  0.250  0.750  0.000  0.000  0.000
  0.000  0.000  0.500  0.168  0.332
  0.000  0.000  0.000  0.663  0.337
  0.750  0.250  0.000  0.000  0.000
  0.000  0.000  0.500  0.168  0.332
    occupations:
  0.370  0.000  0.000  0.000  0.001
  0.000  0.996  0.000  0.001  0.000
  0.000  0.000  0.996 -0.001  0.000
  0.000  0.001 -0.001  0.370  0.000
  0.001  0.000  0.000  0.000  0.996
   spin  2
    eigenvalues: 
  0.985  0.985  0.997  0.997  0.997
    eigenvectors:
  0.750  0.250  0.000  0.000  0.000
  0.000  0.000  0.500  0.496  0.004
  0.000  0.000  0.000  0.007  0.993
  0.250  0.750  0.000  0.000  0.000
  0.000  0.000  0.500  0.496  0.004
    occupations:
  0.985  0.000  0.000  0.000  0.000
  0.000  0.997  0.000  0.000  0.000
  0.000  0.000  0.997  0.000  0.000
  0.000  0.000  0.000  0.985  0.000
  0.000  0.000  0.000  0.000  0.997
atomic mag. moment =    -1.234693
atom    7   Tr[ns(na)] (up, down, total) =   3.72740  4.96210  8.68950
   spin  1
    eigenvalues: 
  0.369  0.371  0.996  0.996  0.996
    eigenvectors:
  0.250  0.750  0.000  0.000  0.000
  0.000  0.000  0.000  0.663  0.337
  0.000  0.000  0.500  0.168  0.332
  0.750  0.250  0.000  0.000  0.000
  0.000  0.000  0.500  0.168  0.332
    occupations:
  0.370  0.000  0.000  0.000  0.001
  0.000  0.996  0.000  0.001  0.000
  0.000  0.000  0.996 -0.001  0.000
  0.000  0.001 -0.001  0.370  0.000
  0.001  0.000  0.000  0.000  0.996
   spin  2
    eigenvalues: 
  0.985  0.985  0.997  0.997  0.997
    eigenvectors:
  0.750  0.250  0.000  0.000  0.000
  0.000  0.000  0.000  0.007  0.993
  0.000  0.000  0.500  0.496  0.004
  0.250  0.750  0.000  0.000  0.000
  0.000  0.000  0.500  0.496  0.004
    occupations:
  0.985  0.000  0.000  0.000  0.000
  0.000  0.997  0.000  0.000  0.000
  0.000  0.000  0.997  0.000  0.000
  0.000  0.000  0.000  0.985  0.000
  0.000  0.000  0.000  0.000  0.997
atomic mag. moment =    -1.234693
atom    8   Tr[ns(na)] (up, down, total) =   3.72740  4.96210  8.68950
   spin  1
    eigenvalues: 
  0.369  0.371  0.996  0.996  0.996
    eigenvectors:
  1.000  0.000  0.000  0.000  0.000
  0.000  0.000  0.500  0.168  0.332
  0.000  0.000  0.500  0.168  0.332
  0.000  1.000  0.000  0.000  0.000
  0.000  0.000  0.000  0.663  0.337
    occupations:
  0.369  0.000  0.000  0.000  0.001
  0.000  0.996  0.000  0.001  0.000
  0.000  0.000  0.996 -0.001  0.000
  0.000  0.001 -0.001  0.371  0.000
  0.001  0.000  0.000  0.000  0.996
   spin  2
    eigenvalues: 
  0.985  0.985  0.997  0.997  0.997
    eigenvectors:
  0.000  1.000  0.000  0.000  0.000
  0.000  0.000  0.500  0.496  0.004
  0.000  0.000  0.500  0.496  0.004
  1.000  0.000  0.000  0.000  0.000
  0.000  0.000  0.000  0.007  0.993
    occupations:
  0.985  0.000  0.000  0.000  0.000
  0.000  0.997  0.000  0.000  0.000
  0.000  0.000  0.997  0.000  0.000
  0.000  0.000  0.000  0.985  0.000
  0.000  0.000  0.000  0.000  0.997
atomic mag. moment =    -1.234693
atom    9   Tr[ns(na)] (up, down, total) =   2.81660  2.81660  5.63320
   spin  1
    eigenvalues: 
  0.939  0.939  0.939
    eigenvectors:
  0.446  0.221  0.333
  0.549  0.118  0.333
  0.005  0.661  0.333
    occupations:
  0.939  0.000  0.000
  0.000  0.939  0.000
  0.000  0.000  0.939
   spin  2
    eigenvalues: 
  0.939  0.939  0.939
    eigenvectors:
  0.417  0.250  0.333
  0.571  0.096  0.333
  0.012  0.655  0.333
    occupations:
  0.939  0.000  0.000
  0.000  0.939  0.000
  0.000  0.000  0.939
atomic mag. moment =    -0.000002
atom   10   Tr[ns(na)] (up, down, total) =   2.81399  2.81399  5.62799
   spin  1
    eigenvalues: 
  0.938  0.938  0.938
    eigenvectors:
  0.000  0.717  0.283
  0.500  0.142  0.358
  0.500  0.142  0.358
    occupations:
  0.938  0.000  0.000
  0.000  0.938  0.000
  0.000  0.000  0.938
   spin  2
    eigenvalues: 
  0.938  0.938  0.938
    eigenvectors:
  0.000  0.720  0.280
  0.500  0.140  0.360
  0.500  0.140  0.360
    occupations:
  0.938  0.000  0.000
  0.000  0.938  0.000
  0.000  0.000  0.938
atomic mag. moment =    -0.000001
atom   11   Tr[ns(na)] (up, down, total) =   2.81399  2.81399  5.62799
   spin  1
    eigenvalues: 
  0.938  0.938  0.938
    eigenvectors:
  0.500  0.142  0.358
  0.000  0.717  0.283
  0.500  0.142  0.358
    occupations:
  0.938  0.000  0.000
  0.000  0.938  0.000
  0.000  0.000  0.938
   spin  2
    eigenvalues: 
  0.938  0.938  0.938
    eigenvectors:
  0.500  0.140  0.360
  0.000  0.720  0.280
  0.500  0.140  0.360
    occupations:
  0.938  0.000  0.000
  0.000  0.938  0.000
  0.000  0.000  0.938
atomic mag. moment =    -0.000001
atom   12   Tr[ns(na)] (up, down, total) =   2.81399  2.81399  5.62799
   spin  1
    eigenvalues: 
  0.938  0.938  0.938
    eigenvectors:
  0.500  0.142  0.358
  0.500  0.142  0.358
  0.000  0.717  0.283
    occupations:
  0.938  0.000  0.000
  0.000  0.938  0.000
  0.000  0.000  0.938
   spin  2
    eigenvalues: 
  0.938  0.938  0.938
    eigenvectors:
  0.500  0.140  0.360
  0.500  0.140  0.360
  0.000  0.720  0.280
    occupations:
  0.938  0.000  0.000
  0.000  0.938  0.000
  0.000  0.000  0.938
atomic mag. moment =    -0.000001
atom   13   Tr[ns(na)] (up, down, total) =   2.81399  2.81400  5.62799
   spin  1
    eigenvalues: 
  0.938  0.938  0.938
    eigenvectors:
  0.230  0.500  0.270
  0.540  0.000  0.460
  0.230  0.500  0.270
    occupations:
  0.938  0.000  0.000
  0.000  0.938  0.000
  0.000  0.000  0.938
   spin  2
    eigenvalues: 
  0.938  0.938  0.938
    eigenvectors:
  0.228  0.500  0.272
  0.545  0.000  0.455
  0.228  0.500  0.272
    occupations:
  0.938  0.000  0.000
  0.000  0.938  0.000
  0.000  0.000  0.938
atomic mag. moment =    -0.000001
atom   14   Tr[ns(na)] (up, down, total) =   2.81399  2.81400  5.62799
   spin  1
    eigenvalues: 
  0.938  0.938  0.938
    eigenvectors:
  0.230  0.500  0.270
  0.230  0.500  0.270
  0.540  0.000  0.460
    occupations:
  0.938  0.000  0.000
  0.000  0.938  0.000
  0.000  0.000  0.938
   spin  2
    eigenvalues: 
  0.938  0.938  0.938
    eigenvectors:
  0.228  0.500  0.272
  0.228  0.500  0.272
  0.545  0.000  0.455
    occupations:
  0.938  0.000  0.000
  0.000  0.938  0.000
  0.000  0.000  0.938
atomic mag. moment =    -0.000001
atom   15   Tr[ns(na)] (up, down, total) =   2.81399  2.81400  5.62799
   spin  1
    eigenvalues: 
  0.938  0.938  0.938
    eigenvectors:
  0.540  0.000  0.460
  0.230  0.500  0.270
  0.230  0.500  0.270
    occupations:
  0.938  0.000  0.000
  0.000  0.938  0.000
  0.000  0.000  0.938
   spin  2
    eigenvalues: 
  0.938  0.938  0.938
    eigenvectors:
  0.545  0.000  0.455
  0.228  0.500  0.272
  0.228  0.500  0.272
    occupations:
  0.938  0.000  0.000
  0.000  0.938  0.000
  0.000  0.000  0.938
atomic mag. moment =    -0.000001
atom   16   Tr[ns(na)] (up, down, total) =   2.81404  2.81404  5.62807
   spin  1
    eigenvalues: 
  0.938  0.938  0.938
    eigenvectors:
  0.400  0.266  0.333
  0.583  0.084  0.333
  0.017  0.650  0.333
    occupations:
  0.938  0.000  0.000
  0.000  0.938  0.000
  0.000  0.000  0.938
   spin  2
    eigenvalues: 
  0.938  0.938  0.938
    eigenvectors:
  0.398  0.268  0.333
  0.584  0.083  0.333
  0.018  0.649  0.333
    occupations:
  0.938  0.000  0.000
  0.000  0.938  0.000
  0.000  0.000  0.938
atomic mag. moment =    -0.000002
N of occupied +U levels = 114.5471362
 --- exit write_ns ---

 ------ SPIN UP ------------


          k = 0.0000 0.0000 0.0000 (  2733 PWs)   bands (ev):

    -8.0369  -6.6450  -6.6449  -6.6449  -6.6284  -6.5770  -6.5770  -6.5486
     4.0197   4.0197   4.0211   4.0440   5.3362   5.3362   5.3363   6.4993
     6.4993   6.5223   6.5223   6.5273   6.5353   6.5581   6.5581   7.9683
     7.9683   7.9692   7.9907   7.9917   7.9917   8.7923   8.7923   8.7923
     9.2904   9.2904   9.2927   9.5063   9.5063   9.6492   9.8392   9.8392
     9.8867   9.8867   9.8870  10.1732  10.1736  10.1736  10.4443  10.4443
    10.4445  10.5536  10.5536  10.5537  10.8845  10.8845  11.0095  11.0112
    11.0112  11.1518  11.2365  11.2372  11.2372  11.3575  11.3575  11.3585
    13.5570  13.5570  13.6177  13.6177  13.6180  13.7028  13.7037  13.7037
    13.7729  17.8031  17.8046  17.8046  17.8091

          k = 0.2500-0.2500-0.2500 (  2764 PWs)   bands (ev):

    -7.4097  -7.3947  -6.6227  -6.6224  -6.6193  -6.6164  -6.6139  -6.5762
     5.0307   5.0329   5.0702   5.0796   5.0800   5.0891   6.0813   6.1124
     6.3015   6.3262   6.3771   6.3910   6.4555   6.4693   6.8260   6.8429
     7.0050   7.0188   7.3192   7.3283   7.4816   7.4911   7.6422   7.6593
     9.5828   9.5835   9.7747   9.7749   9.8459   9.8474   9.9755   9.9759
    10.1146  10.1162  10.1653  10.1656  10.4837  10.4862  10.6028  10.6056
    10.6352  10.6368  10.8310  10.8325  10.9307  10.9326  11.2137  11.2156
    11.2261  11.2284  11.2709  11.2728  11.3026  11.3040  11.4113  11.4148
    13.0550  13.0559  13.0597  13.0601  13.0674  13.0675  13.0796  13.0801
    16.5006  16.5038  19.6621  19.6622  19.7226

          k = 0.0000 0.0000-0.5000 (  2762 PWs)   bands (ev):

    -7.2715  -7.2585  -6.7740  -6.7739  -6.7730  -6.7485  -6.4686  -6.4540
     4.9996   5.0095   5.0279   5.0395   5.7565   5.7819   6.0933   6.0970
     6.1199   6.1236   6.3904   6.4129   6.6275   6.6443   6.6612   6.6783
     6.7010   6.7379   6.7413   6.7445   8.1535   8.1634   8.1713   8.1812
     9.2050   9.2058   9.8897   9.8911   9.9716   9.9722   9.9956   9.9956
    10.0085  10.0122  10.1231  10.1236  10.3112  10.3116  10.4433  10.4449
    10.4743  10.4778  10.5472  10.5475  10.8860  10.8862  10.9714  10.9731
    11.1243  11.1252  11.2070  11.2088  11.3069  11.3084  11.3218  11.3227
    12.4714  12.4721  12.7287  12.7290  13.5282  13.5295  13.6303  13.6313
    17.6884  17.6887  19.2711  19.2715  19.2720

          k =-0.2500-0.2500-0.2500 (  2764 PWs)   bands (ev):

    -7.4111  -7.3935  -6.6289  -6.6289  -6.6234  -6.6077  -6.6077  -6.5740
     4.9989   4.9989   5.0265   5.1132   5.1132   5.1327   6.0728   6.1236
     6.2309   6.2583   6.2583   6.6809   6.7120   6.7120   6.7260   6.7260
     6.7393   6.9521   6.9521   7.4615   7.4615   7.4767   7.8836   7.8836
     9.4379   9.4379   9.4381   9.6180   9.6180  10.0610  10.0614  10.0614
    10.0767  10.4271  10.4279  10.4279  10.4586  10.4586  10.4591  10.7011
    10.7011  10.7934  10.7986  10.7986  10.8491  11.0240  11.0240  11.0274
    11.2165  11.2173  11.2173  11.2826  11.2826  11.3760  11.3760  11.3771
    13.0549  13.0550  13.0550  13.0748  13.0748  13.0854  13.0854  13.0858
    16.4254  16.5820  19.6405  19.6405  19.6406

 ------ SPIN DOWN ----------


          k = 0.0000 0.0000 0.0000 (  2733 PWs)   bands (ev):

    -8.0369  -6.6450  -6.6449  -6.6449  -6.6284  -6.5770  -6.5770  -6.5486
     4.0197   4.0197   4.0211   4.0440   5.3362   5.3362   5.3363   6.4993
     6.4993   6.5223   6.5223   6.5273   6.5353   6.5581   6.5581   7.9683
     7.9683   7.9692   7.9907   7.9917   7.9917   8.7923   8.7923   8.7923
     9.2904   9.2904   9.2927   9.5063   9.5063   9.6492   9.8392   9.8392
     9.8866   9.8866   9.8870  10.1731  10.1736  10.1736  10.4443  10.4443
    10.4445  10.5536  10.5536  10.5537  10.8846  10.8846  11.0095  11.0112
    11.0112  11.1519  11.2365  11.2372  11.2372  11.3576  11.3576  11.3585
    13.5571  13.5571  13.6177  13.6177  13.6180  13.7028  13.7037  13.7037
    13.7729  17.8031  17.8046  17.8046  17.8091

          k = 0.2500-0.2500-0.2500 (  2764 PWs)   bands (ev):

    -7.4097  -7.3947  -6.6227  -6.6224  -6.6193  -6.6164  -6.6139  -6.5762
     5.0307   5.0329   5.0702   5.0796   5.0800   5.0891   6.0813   6.1124
     6.3015   6.3262   6.3771   6.3910   6.4555   6.4693   6.8260   6.8429
     7.0050   7.0188   7.3192   7.3283   7.4816   7.4911   7.6422   7.6593
     9.5828   9.5835   9.7747   9.7748   9.8458   9.8474   9.9754   9.9758
    10.1146  10.1162  10.1652  10.1656  10.4836  10.4862  10.6028  10.6056
    10.6353  10.6368  10.8310  10.8325  10.9307  10.9326  11.2137  11.2157
    11.2262  11.2284  11.2709  11.2728  11.3027  11.3041  11.4113  11.4148
    13.0550  13.0559  13.0597  13.0601  13.0674  13.0675  13.0797  13.0801
    16.5006  16.5038  19.6621  19.6622  19.7226

          k = 0.0000 0.0000-0.5000 (  2762 PWs)   bands (ev):

    -7.2715  -7.2585  -6.7740  -6.7739  -6.7730  -6.7485  -6.4686  -6.4540
     4.9996   5.0095   5.0279   5.0395   5.7565   5.7819   6.0933   6.0970
     6.1199   6.1236   6.3904   6.4129   6.6275   6.6443   6.6612   6.6783
     6.7010   6.7379   6.7413   6.7445   8.1535   8.1634   8.1713   8.1812
     9.2050   9.2058   9.8896   9.8910   9.9715   9.9722   9.9955   9.9955
    10.0085  10.0122  10.1231  10.1236  10.3111  10.3116  10.4432  10.4449
    10.4743  10.4778  10.5471  10.5475  10.8860  10.8862  10.9715  10.9731
    11.1244  11.1252  11.2071  11.2088  11.3070  11.3084  11.3219  11.3227
    12.4714  12.4722  12.7288  12.7291  13.5282  13.5295  13.6303  13.6313
    17.6884  17.6887  19.2711  19.2715  19.2720

          k =-0.2500-0.2500-0.2500 (  2764 PWs)   bands (ev):

    -7.4111  -7.3935  -6.6289  -6.6289  -6.6234  -6.6077  -6.6077  -6.5740
     4.9989   4.9989   5.0265   5.1132   5.1132   5.1327   6.0728   6.1236
     6.2309   6.2583   6.2583   6.6809   6.7120   6.7120   6.7260   6.7260
     6.7393   6.9521   6.9521   7.4615   7.4615   7.4767   7.8836   7.8836
     9.4378   9.4378   9.4380   9.6180   9.6180  10.0609  10.0614  10.0614
    10.0766  10.4271  10.4279  10.4279  10.4586  10.4586  10.4591  10.7011
    10.7011  10.7934  10.7986  10.7986  10.8491  11.0239  11.0239  11.0274
    11.2166  11.2173  11.2173  11.2826  11.2826  11.3761  11.3761  11.3771
    13.0549  13.0550  13.0550  13.0748  13.0748  13.0854  13.0854  13.0858
    16.4254  16.5820  19.6405  19.6405  19.6406

     the Fermi energy is    11.9431 ev

!    total energy              =    -942.05827591 Ry
     Harris-Foulkes estimate   =    -942.05827591 Ry
     estimated scf accuracy    <          8.3E-09 Ry

     The total energy is the sum of the following terms:

     one-electron contribution =     -56.24618609 Ry
     hartree contribution      =     175.69768751 Ry
     xc contribution           =    -297.59026664 Ry
     ewald contribution        =    -763.85740583 Ry
     Hubbard energy            =      -0.06210486 Ry
     smearing contrib. (-TS)   =       0.00000000 Ry

     total magnetization       =     0.00 Bohr mag/cell
     absolute magnetization    =    12.66 Bohr mag/cell

     convergence has been achieved in   6 iterations

     Writing output data file nio.save
 
     init_run     :     13.40s CPU     14.29s WALL (       1 calls)
     electrons    :    153.91s CPU    161.90s WALL (       1 calls)

     Called by init_run:
     wfcinit      :      0.20s CPU      0.21s WALL (       1 calls)
     potinit      :      1.24s CPU      1.40s WALL (       1 calls)

     Called by electrons:
     c_bands      :     30.01s CPU     31.58s WALL (       6 calls)
     sum_band     :     61.27s CPU     62.23s WALL (       6 calls)
     v_of_rho     :      6.64s CPU      7.47s WALL (       7 calls)
     newd         :     63.76s CPU     68.78s WALL (       7 calls)
     mix_rho      :      0.92s CPU      1.03s WALL (       6 calls)

     Called by c_bands:
     init_us_2    :      0.27s CPU      0.29s WALL (      26 calls)
     cegterg      :     28.69s CPU     30.06s WALL (      12 calls)

     Called by *egterg:
     h_psi        :     20.33s CPU     21.08s WALL (      64 calls)
     s_psi        :      1.72s CPU      1.73s WALL (      66 calls)
     g_psi        :      0.10s CPU      0.10s WALL (      52 calls)
     cdiaghg      :      1.98s CPU      1.97s WALL (      62 calls)

     Called by h_psi:
     add_vuspsi   :      1.67s CPU      1.66s WALL (      64 calls)

     General routines
     calbec       :      2.84s CPU      2.83s WALL (     154 calls)
     fft          :      5.78s CPU      6.43s WALL (     205 calls)
     ffts         :      0.07s CPU      0.08s WALL (      26 calls)
     fftw         :     10.85s CPU     11.71s WALL (    5906 calls)
     interpolate  :      0.91s CPU      1.16s WALL (      26 calls)
     davcio       :      0.00s CPU      0.37s WALL (      76 calls)
 
     Parallel routines
     fft_scatter  :      3.04s CPU      3.53s WALL (    6137 calls)
     EXX routines
 
     PWSCF        :  2m47.69s CPU     2m56.74s WALL

 
   This run was terminated on:  12:17: 8  17Jun2012            

=------------------------------------------------------------------------------=
   JOB DONE.
=------------------------------------------------------------------------------=
