
     Program PWSCF v.5.0        starts on 17Jun2012 at 12:20: 6 

     This program is part of the open-source Quantum ESPRESSO suite
     for quantum simulation of materials; please cite
         "P. Giannozzi et al., J. Phys.:Condens. Matter 21 395502 (2009);
          URL http://www.quantum-espresso.org", 
     in publications or presentations arising from this work. More details at
     http://www.quantum-espresso.org/quote.php

     Parallel version (MPI), running on     4 processors
     K-points division:     npool     =    4

     Current dimensions of program PWSCF are:
     Max number of different atomic species (ntypx) = 10
     Max number of k-points (npk) =  40000
     Max angular momentum in pseudopotentials (lmaxx) =  3
     Waiting for input...
     Reading input from standard input
               file Ni.pbe-nd-rrkjus.UPF: wavefunction(s)  4S renormalized
               file Ni.pbe-nd-rrkjus.UPF: wavefunction(s)  4S renormalized
               file O.pbe-rrkjus.UPF: wavefunction(s)  2S renormalized
               file O.pbe-rrkjus.UPF: wavefunction(s)  2S renormalized

     Subspace diagonalization in iterative solution of the eigenvalue problem:
     a serial algorithm will be used

 
     G-vector sticks info
     --------------------
     sticks:   dense  smooth     PW     G-vecs:    dense   smooth      PW
     Sum        2587    1039    295                86547    22075    3287
 


     bravais-lattice index     =            0
     lattice parameter (alat)  =       7.9000  a.u.
     unit-cell volume          =     986.0780 (a.u.)^3
     number of atoms/cell      =           16
     number of atomic types    =            4
     number of electrons       =       128.00
     number of Kohn-Sham states=           77
     kinetic-energy cutoff     =      30.0000  Ry
     charge density cutoff     =     300.0000  Ry
     convergence threshold     =      1.0E-08
     mixing beta               =       0.3000
     number of iterations used =            8  plain     mixing
     Exchange-correlation      =  SLA  PW   PBE  PBE ( 1 4 3 4 0)
     EXX-fraction              =        0.00

     celldm(1)=   7.900000  celldm(2)=   0.000000  celldm(3)=   0.000000
     celldm(4)=   0.000000  celldm(5)=   0.000000  celldm(6)=   0.000000

     crystal axes: (cart. coord. in units of alat)
               a(1) = (   1.000000   1.000000   0.000000 )  
               a(2) = (   1.000000   0.000000   1.000000 )  
               a(3) = (   0.000000   1.000000   1.000000 )  

     reciprocal axes: (cart. coord. in units 2 pi/alat)
               b(1) = (  0.500000  0.500000 -0.500000 )  
               b(2) = (  0.500000 -0.500000  0.500000 )  
               b(3) = ( -0.500000  0.500000  0.500000 )  


     PseudoPot. # 1 for Ni read from file:
     ../pseudo/Ni.pbe-nd-rrkjus.UPF
     MD5 check sum: 8081f0a005c9a5470caab1a58e82ecb2
     Pseudo is Ultrasoft + core correction, Zval = 10.0
     Generated by new atomic code, or converted to UPF format
     Using radial grid of 1203 points,  6 beta functions with: 
                l(1) =   0
                l(2) =   0
                l(3) =   1
                l(4) =   1
                l(5) =   2
                l(6) =   2
     Q(r) pseudized with 0 coefficients 


     PseudoPot. # 2 for Ni read from file:
     ../pseudo/Ni.pbe-nd-rrkjus.UPF
     MD5 check sum: 8081f0a005c9a5470caab1a58e82ecb2
     Pseudo is Ultrasoft + core correction, Zval = 10.0
     Generated by new atomic code, or converted to UPF format
     Using radial grid of 1203 points,  6 beta functions with: 
                l(1) =   0
                l(2) =   0
                l(3) =   1
                l(4) =   1
                l(5) =   2
                l(6) =   2
     Q(r) pseudized with 0 coefficients 


     PseudoPot. # 3 for O  read from file:
     ../pseudo/O.pbe-rrkjus.UPF
     MD5 check sum: 390ba29e75625707450f3bd3f0eb6be9
     Pseudo is Ultrasoft, Zval =  6.0
     Generated by new atomic code, or converted to UPF format
     Using radial grid of 1269 points,  4 beta functions with: 
                l(1) =   0
                l(2) =   0
                l(3) =   1
                l(4) =   1
     Q(r) pseudized with 0 coefficients 


     PseudoPot. # 4 for O  read from file:
     ../pseudo/O.pbe-rrkjus.UPF
     MD5 check sum: 390ba29e75625707450f3bd3f0eb6be9
     Pseudo is Ultrasoft, Zval =  6.0
     Generated by new atomic code, or converted to UPF format
     Using radial grid of 1269 points,  4 beta functions with: 
                l(1) =   0
                l(2) =   0
                l(3) =   1
                l(4) =   1
     Q(r) pseudized with 0 coefficients 


     atomic species   valence    mass     pseudopotential
        Ni1           10.00     1.00000     Ni( 1.00)
        Ni2           10.00     1.00000     Ni( 1.00)
        O1             6.00     1.00000     O ( 1.00)
        O2             6.00     1.00000     O ( 1.00)

     Starting magnetic structure 
     atomic species   magnetization
        Ni1          0.500
        Ni2         -0.500
        O1           0.000
        O2           0.000
 -----
     simplified LDA+U calculation, Hubbard_lmax = 2
     atomic species  L   Hubbard U  Hubbard alpha
        Ni1          2    0.000000    0.000000
        Ni2          2    0.000000    0.000000
        O1           1    0.000000   -0.070000
        O2           1    0.000000    0.000000
 -----

      6 Sym. Ops. (no inversion) found



   Cartesian axes

     site n.     atom                  positions (alat units)
         1           Ni1 tau(   1) = (   0.0000000   0.0000000  -0.5000000  )
         2           Ni1 tau(   2) = (   1.0000000   0.5000000   0.0000000  )
         3           Ni1 tau(   3) = (   0.5000000   1.0000000   0.0000000  )
         4           Ni1 tau(   4) = (   0.5000000   0.5000000   0.5000000  )
         5           Ni2 tau(   5) = (   0.5000000   0.5000000  -0.5000000  )
         6           Ni2 tau(   6) = (   0.5000000   0.0000000   0.0000000  )
         7           Ni2 tau(   7) = (   0.0000000   0.5000000   0.0000000  )
         8           Ni2 tau(   8) = (   1.0000000   1.0000000   0.5000000  )
         9           O1  tau(   9) = (   0.0000000   0.0000000   0.0000000  )
        10           O2  tau(  10) = (   0.5000000   0.5000000   0.0000000  )
        11           O2  tau(  11) = (   0.0000000   0.5000000   0.5000000  )
        12           O2  tau(  12) = (   0.5000000   0.0000000   0.5000000  )
        13           O2  tau(  13) = (   1.0000000   0.5000000   0.5000000  )
        14           O2  tau(  14) = (   0.5000000   1.0000000   0.5000000  )
        15           O2  tau(  15) = (   0.5000000   0.5000000   1.0000000  )
        16           O2  tau(  16) = (   1.0000000   1.0000000   1.0000000  )

     number of k points=     8  gaussian smearing, width (Ry)=  0.0100
                       cart. coord. in units 2pi/alat
        k(    1) = (   0.0000000   0.0000000   0.0000000), wk =   0.1250000
        k(    2) = (   0.2500000  -0.2500000  -0.2500000), wk =   0.3750000
        k(    3) = (   0.0000000   0.0000000  -0.5000000), wk =   0.3750000
        k(    4) = (  -0.2500000  -0.2500000  -0.2500000), wk =   0.1250000
        k(    5) = (   0.0000000   0.0000000   0.0000000), wk =   0.1250000
        k(    6) = (   0.2500000  -0.2500000  -0.2500000), wk =   0.3750000
        k(    7) = (   0.0000000   0.0000000  -0.5000000), wk =   0.3750000
        k(    8) = (  -0.2500000  -0.2500000  -0.2500000), wk =   0.1250000

     Dense  grid:    86547 G-vectors     FFT dimensions: (  64,  64,  64)

     Smooth grid:    22075 G-vectors     FFT dimensions: (  40,  40,  40)

     Largest allocated arrays     est. size (Mb)     dimensions
        Kohn-Sham Wavefunctions         3.25 Mb     (   2764,   77)
        Atomic wavefunctions            3.37 Mb     (   2764,   80)
        NL pseudopotentials             8.77 Mb     (   2764,  208)
        Each V/rho on FFT grid          8.00 Mb     ( 262144,   2)
        Each G-vector array             0.66 Mb     (  86547)
        G-vector shells                 0.00 Mb     (    635)
     Largest temporary arrays     est. size (Mb)     dimensions
        Auxiliary wavefunctions        12.99 Mb     (   2764,  308)
        Each subspace H/S matrix        1.45 Mb     ( 308, 308)
        Each <psi_i|beta_j> matrix      0.24 Mb     (    208,   77)
        Arrays for rho mixing          32.00 Mb     ( 262144,   8)

     Check: negative/imaginary core charge=   -0.000047    0.000000

     The initial density is read from file :
     ./temp/nio.save/charge-density.dat

     Number of +U iterations with fixed ns =  0
     Starting occupations:
 --- enter write_ns ---
 LDA+U parameters:
U( 1)     =  0.00000000
alpha( 1) =  0.00000000
U( 2)     =  0.00000000
alpha( 2) =  0.00000000
U( 3)     =  0.00000000
alpha( 3) = -0.07000000
U( 4)     =  0.00000000
alpha( 4) =  0.00000000
atom    1   Tr[ns(na)] (up, down, total) =   4.96210  3.72838  8.69048
   spin  1
    eigenvalues: 
  0.985  0.985  0.997  0.997  0.997
    eigenvectors:
  1.000  0.000  0.000  0.000  0.000
  0.000  0.000  0.500  0.170  0.330
  0.000  0.000  0.500  0.170  0.330
  0.000  1.000  0.000  0.000  0.000
  0.000  0.000  0.000  0.660  0.339
    occupations:
  0.985  0.000  0.000  0.000  0.000
  0.000  0.997  0.000  0.000  0.000
  0.000  0.000  0.997  0.000  0.000
  0.000  0.000  0.000  0.985  0.000
  0.000  0.000  0.000  0.000  0.997
   spin  2
    eigenvalues: 
  0.370  0.370  0.996  0.996  0.996
    eigenvectors:
  0.000  1.000  0.000  0.000  0.000
  0.000  0.000  0.167  0.500  0.333
  0.000  0.000  0.167  0.500  0.333
  1.000  0.000  0.000  0.000  0.000
  0.000  0.000  0.667  0.000  0.333
    occupations:
  0.370  0.000  0.000  0.000  0.001
  0.000  0.996  0.000  0.001  0.000
  0.000  0.000  0.996 -0.001  0.000
  0.000  0.001 -0.001  0.370  0.000
  0.001  0.000  0.000  0.000  0.996
atomic mag. moment =     1.233727
atom    2   Tr[ns(na)] (up, down, total) =   4.96210  3.72838  8.69048
   spin  1
    eigenvalues: 
  0.985  0.985  0.997  0.997  0.997
    eigenvectors:
  0.250  0.750  0.000  0.000  0.000
  0.000  0.000  0.000  0.660  0.339
  0.000  0.000  0.500  0.170  0.330
  0.750  0.250  0.000  0.000  0.000
  0.000  0.000  0.500  0.170  0.330
    occupations:
  0.985  0.000  0.000  0.000  0.000
  0.000  0.997  0.000  0.000  0.000
  0.000  0.000  0.997  0.000  0.000
  0.000  0.000  0.000  0.985  0.000
  0.000  0.000  0.000  0.000  0.997
   spin  2
    eigenvalues: 
  0.370  0.370  0.996  0.996  0.996
    eigenvectors:
  0.750  0.250  0.000  0.000  0.000
  0.000  0.000  0.667  0.000  0.333
  0.000  0.000  0.167  0.500  0.333
  0.250  0.750  0.000  0.000  0.000
  0.000  0.000  0.167  0.500  0.333
    occupations:
  0.370  0.000  0.000  0.000  0.001
  0.000  0.996  0.000  0.001  0.000
  0.000  0.000  0.996 -0.001  0.000
  0.000  0.001 -0.001  0.370  0.000
  0.001  0.000  0.000  0.000  0.996
atomic mag. moment =     1.233727
atom    3   Tr[ns(na)] (up, down, total) =   4.96210  3.72838  8.69048
   spin  1
    eigenvalues: 
  0.985  0.985  0.997  0.997  0.997
    eigenvectors:
  0.250  0.750  0.000  0.000  0.000
  0.000  0.000  0.500  0.170  0.330
  0.000  0.000  0.000  0.660  0.339
  0.750  0.250  0.000  0.000  0.000
  0.000  0.000  0.500  0.170  0.330
    occupations:
  0.985  0.000  0.000  0.000  0.000
  0.000  0.997  0.000  0.000  0.000
  0.000  0.000  0.997  0.000  0.000
  0.000  0.000  0.000  0.985  0.000
  0.000  0.000  0.000  0.000  0.997
   spin  2
    eigenvalues: 
  0.370  0.370  0.996  0.996  0.996
    eigenvectors:
  0.750  0.250  0.000  0.000  0.000
  0.000  0.000  0.167  0.500  0.333
  0.000  0.000  0.667  0.000  0.333
  0.250  0.750  0.000  0.000  0.000
  0.000  0.000  0.167  0.500  0.333
    occupations:
  0.370  0.000  0.000  0.000  0.001
  0.000  0.996  0.000  0.001  0.000
  0.000  0.000  0.996 -0.001  0.000
  0.000  0.001 -0.001  0.370  0.000
  0.001  0.000  0.000  0.000  0.996
atomic mag. moment =     1.233727
atom    4   Tr[ns(na)] (up, down, total) =   4.96210  3.72838  8.69048
   spin  1
    eigenvalues: 
  0.985  0.985  0.997  0.997  0.997
    eigenvectors:
  0.160  0.840  0.000  0.000  0.000
  0.000  0.000  0.526  0.140  0.333
  0.000  0.000  0.001  0.665  0.333
  0.840  0.160  0.000  0.000  0.000
  0.000  0.000  0.472  0.195  0.333
    occupations:
  0.985  0.000  0.000  0.000  0.000
  0.000  0.997  0.000  0.000  0.000
  0.000  0.000  0.997  0.000  0.000
  0.000  0.000  0.000  0.985  0.000
  0.000  0.000  0.000  0.000  0.997
   spin  2
    eigenvalues: 
  0.370  0.370  0.996  0.996  0.996
    eigenvectors:
  0.203  0.797  0.000  0.000  0.000
  0.000  0.000  0.144  0.522  0.333
  0.000  0.000  0.190  0.477  0.333
  0.797  0.203  0.000  0.000  0.000
  0.000  0.000  0.666  0.001  0.333
    occupations:
  0.370  0.000  0.000  0.000  0.001
  0.000  0.996  0.000  0.001  0.000
  0.000  0.000  0.996 -0.001  0.000
  0.000  0.001 -0.001  0.370  0.000
  0.001  0.000  0.000  0.000  0.996
atomic mag. moment =     1.233726
atom    5   Tr[ns(na)] (up, down, total) =   3.72838  4.96211  8.69049
   spin  1
    eigenvalues: 
  0.370  0.370  0.996  0.996  0.996
    eigenvectors:
  0.140  0.860  0.000  0.000  0.000
  0.000  0.000  0.119  0.548  0.333
  0.000  0.000  0.220  0.447  0.333
  0.860  0.140  0.000  0.000  0.000
  0.000  0.000  0.662  0.005  0.333
    occupations:
  0.370  0.000  0.000  0.000  0.001
  0.000  0.996  0.000  0.001  0.000
  0.000  0.000  0.996 -0.001  0.000
  0.000  0.001 -0.001  0.370  0.000
  0.001  0.000  0.000  0.000  0.996
   spin  2
    eigenvalues: 
  0.985  0.985  0.997  0.997  0.997
    eigenvectors:
  0.323  0.677  0.000  0.000  0.000
  0.000  0.000  0.060  0.606  0.333
  0.000  0.000  0.304  0.363  0.333
  0.677  0.323  0.000  0.000  0.000
  0.000  0.000  0.635  0.031  0.333
    occupations:
  0.985  0.000  0.000  0.000  0.000
  0.000  0.997  0.000  0.000  0.000
  0.000  0.000  0.997  0.000  0.000
  0.000  0.000  0.000  0.985  0.000
  0.000  0.000  0.000  0.000  0.997
atomic mag. moment =    -1.233725
atom    6   Tr[ns(na)] (up, down, total) =   3.72838  4.96211  8.69049
   spin  1
    eigenvalues: 
  0.370  0.370  0.996  0.996  0.996
    eigenvectors:
  0.750  0.250  0.000  0.000  0.000
  0.000  0.000  0.500  0.167  0.333
  0.000  0.000  0.000  0.667  0.333
  0.250  0.750  0.000  0.000  0.000
  0.000  0.000  0.500  0.167  0.333
    occupations:
  0.370  0.000  0.000  0.000  0.001
  0.000  0.996  0.000  0.001  0.000
  0.000  0.000  0.996 -0.001  0.000
  0.000  0.001 -0.001  0.370  0.000
  0.001  0.000  0.000  0.000  0.996
   spin  2
    eigenvalues: 
  0.985  0.985  0.997  0.997  0.997
    eigenvectors:
  0.250  0.750  0.000  0.000  0.000
  0.000  0.000  0.500  0.166  0.334
  0.000  0.000  0.000  0.668  0.332
  0.750  0.250  0.000  0.000  0.000
  0.000  0.000  0.500  0.166  0.334
    occupations:
  0.985  0.000  0.000  0.000  0.000
  0.000  0.997  0.000  0.000  0.000
  0.000  0.000  0.997  0.000  0.000
  0.000  0.000  0.000  0.985  0.000
  0.000  0.000  0.000  0.000  0.997
atomic mag. moment =    -1.233723
atom    7   Tr[ns(na)] (up, down, total) =   3.72838  4.96211  8.69049
   spin  1
    eigenvalues: 
  0.370  0.370  0.996  0.996  0.996
    eigenvectors:
  0.750  0.250  0.000  0.000  0.000
  0.000  0.000  0.000  0.667  0.333
  0.000  0.000  0.500  0.167  0.333
  0.250  0.750  0.000  0.000  0.000
  0.000  0.000  0.500  0.167  0.333
    occupations:
  0.370  0.000  0.000  0.000  0.001
  0.000  0.996  0.000  0.001  0.000
  0.000  0.000  0.996 -0.001  0.000
  0.000  0.001 -0.001  0.370  0.000
  0.001  0.000  0.000  0.000  0.996
   spin  2
    eigenvalues: 
  0.985  0.985  0.997  0.997  0.997
    eigenvectors:
  0.250  0.750  0.000  0.000  0.000
  0.000  0.000  0.000  0.668  0.332
  0.000  0.000  0.500  0.166  0.334
  0.750  0.250  0.000  0.000  0.000
  0.000  0.000  0.500  0.166  0.334
    occupations:
  0.985  0.000  0.000  0.000  0.000
  0.000  0.997  0.000  0.000  0.000
  0.000  0.000  0.997  0.000  0.000
  0.000  0.000  0.000  0.985  0.000
  0.000  0.000  0.000  0.000  0.997
atomic mag. moment =    -1.233723
atom    8   Tr[ns(na)] (up, down, total) =   3.72838  4.96211  8.69049
   spin  1
    eigenvalues: 
  0.370  0.370  0.996  0.996  0.996
    eigenvectors:
  0.000  1.000  0.000  0.000  0.000
  0.000  0.000  0.500  0.167  0.333
  0.000  0.000  0.500  0.167  0.333
  1.000  0.000  0.000  0.000  0.000
  0.000  0.000  0.000  0.667  0.333
    occupations:
  0.370  0.000  0.000  0.000  0.001
  0.000  0.996  0.000  0.001  0.000
  0.000  0.000  0.996 -0.001  0.000
  0.000  0.001 -0.001  0.370  0.000
  0.001  0.000  0.000  0.000  0.996
   spin  2
    eigenvalues: 
  0.985  0.985  0.997  0.997  0.997
    eigenvectors:
  1.000  0.000  0.000  0.000  0.000
  0.000  0.000  0.500  0.166  0.334
  0.000  0.000  0.500  0.166  0.334
  0.000  1.000  0.000  0.000  0.000
  0.000  0.000  0.000  0.668  0.332
    occupations:
  0.985  0.000  0.000  0.000  0.000
  0.000  0.997  0.000  0.000  0.000
  0.000  0.000  0.997  0.000  0.000
  0.000  0.000  0.000  0.985  0.000
  0.000  0.000  0.000  0.000  0.997
atomic mag. moment =    -1.233723
atom    9   Tr[ns(na)] (up, down, total) =   2.81403  2.81403  5.62805
   spin  1
    eigenvalues: 
  0.938  0.938  0.938
    eigenvectors:
  0.397  0.270  0.333
  0.585  0.081  0.333
  0.018  0.648  0.333
    occupations:
  0.938  0.000  0.000
  0.000  0.938  0.000
  0.000  0.000  0.938
   spin  2
    eigenvalues: 
  0.938  0.938  0.938
    eigenvectors:
  0.394  0.273  0.333
  0.587  0.080  0.333
  0.019  0.647  0.333
    occupations:
  0.938  0.000  0.000
  0.000  0.938  0.000
  0.000  0.000  0.938
atomic mag. moment =    -0.000001
atom   10   Tr[ns(na)] (up, down, total) =   2.81402  2.81403  5.62805
   spin  1
    eigenvalues: 
  0.938  0.938  0.938
    eigenvectors:
  0.000  0.666  0.334
  0.500  0.167  0.333
  0.500  0.167  0.333
    occupations:
  0.938  0.000  0.000
  0.000  0.938  0.000
  0.000  0.000  0.938
   spin  2
    eigenvalues: 
  0.938  0.938  0.938
    eigenvectors:
  0.000  0.667  0.333
  0.500  0.166  0.334
  0.500  0.166  0.334
    occupations:
  0.938  0.000  0.000
  0.000  0.938  0.000
  0.000  0.000  0.938
atomic mag. moment =    -0.000001
atom   11   Tr[ns(na)] (up, down, total) =   2.81402  2.81403  5.62805
   spin  1
    eigenvalues: 
  0.938  0.938  0.938
    eigenvectors:
  0.500  0.167  0.333
  0.000  0.666  0.334
  0.500  0.167  0.333
    occupations:
  0.938  0.000  0.000
  0.000  0.938  0.000
  0.000  0.000  0.938
   spin  2
    eigenvalues: 
  0.938  0.938  0.938
    eigenvectors:
  0.500  0.166  0.334
  0.000  0.667  0.333
  0.500  0.166  0.334
    occupations:
  0.938  0.000  0.000
  0.000  0.938  0.000
  0.000  0.000  0.938
atomic mag. moment =    -0.000001
atom   12   Tr[ns(na)] (up, down, total) =   2.81402  2.81403  5.62805
   spin  1
    eigenvalues: 
  0.938  0.938  0.938
    eigenvectors:
  0.500  0.167  0.333
  0.500  0.167  0.333
  0.000  0.666  0.334
    occupations:
  0.938  0.000  0.000
  0.000  0.938  0.000
  0.000  0.000  0.938
   spin  2
    eigenvalues: 
  0.938  0.938  0.938
    eigenvectors:
  0.500  0.166  0.334
  0.500  0.166  0.334
  0.000  0.667  0.333
    occupations:
  0.938  0.000  0.000
  0.000  0.938  0.000
  0.000  0.000  0.938
atomic mag. moment =    -0.000001
atom   13   Tr[ns(na)] (up, down, total) =   2.81402  2.81402  5.62805
   spin  1
    eigenvalues: 
  0.938  0.938  0.938
    eigenvectors:
  0.167  0.500  0.333
  0.666  0.000  0.334
  0.167  0.500  0.333
    occupations:
  0.938  0.000  0.000
  0.000  0.938  0.000
  0.000  0.000  0.938
   spin  2
    eigenvalues: 
  0.938  0.938  0.938
    eigenvectors:
  0.166  0.500  0.334
  0.667  0.000  0.333
  0.166  0.500  0.334
    occupations:
  0.938  0.000  0.000
  0.000  0.938  0.000
  0.000  0.000  0.938
atomic mag. moment =    -0.000001
atom   14   Tr[ns(na)] (up, down, total) =   2.81402  2.81402  5.62805
   spin  1
    eigenvalues: 
  0.938  0.938  0.938
    eigenvectors:
  0.167  0.500  0.333
  0.167  0.500  0.333
  0.666  0.000  0.334
    occupations:
  0.938  0.000  0.000
  0.000  0.938  0.000
  0.000  0.000  0.938
   spin  2
    eigenvalues: 
  0.938  0.938  0.938
    eigenvectors:
  0.166  0.500  0.334
  0.166  0.500  0.334
  0.667  0.000  0.333
    occupations:
  0.938  0.000  0.000
  0.000  0.938  0.000
  0.000  0.000  0.938
atomic mag. moment =    -0.000001
atom   15   Tr[ns(na)] (up, down, total) =   2.81402  2.81402  5.62805
   spin  1
    eigenvalues: 
  0.938  0.938  0.938
    eigenvectors:
  0.666  0.000  0.334
  0.167  0.500  0.333
  0.167  0.500  0.333
    occupations:
  0.938  0.000  0.000
  0.000  0.938  0.000
  0.000  0.000  0.938
   spin  2
    eigenvalues: 
  0.938  0.938  0.938
    eigenvectors:
  0.667  0.000  0.333
  0.166  0.500  0.334
  0.166  0.500  0.334
    occupations:
  0.938  0.000  0.000
  0.000  0.938  0.000
  0.000  0.000  0.938
atomic mag. moment =    -0.000001
atom   16   Tr[ns(na)] (up, down, total) =   2.81402  2.81402  5.62804
   spin  1
    eigenvalues: 
  0.938  0.938  0.938
    eigenvectors:
  0.394  0.272  0.333
  0.587  0.080  0.333
  0.019  0.648  0.333
    occupations:
  0.938  0.000  0.000
  0.000  0.938  0.000
  0.000  0.000  0.938
   spin  2
    eigenvalues: 
  0.938  0.938  0.938
    eigenvectors:
  0.384  0.283  0.333
  0.593  0.073  0.333
  0.023  0.644  0.333
    occupations:
  0.938  0.000  0.000
  0.000  0.938  0.000
  0.000  0.000  0.938
atomic mag. moment =    -0.000001
N of occupied +U levels = 114.5482719
 --- exit write_ns ---
 Atomic wfc used for LDA+U Projector are NOT orthogonalized
     Starting wfc from file

     total cpu time spent up to now is       14.6 secs

     per-process dynamical memory:    86.2 Mb

     Self-consistent Calculation

     iteration #  1     ecut=    30.00 Ry     beta=0.30
     Davidson diagonalization with overlap
     c_bands:  1 eigenvalues not converged
     ethr =  2.19E-11,  avg # of iterations = 17.1
 --- enter write_ns ---
 LDA+U parameters:
U( 1)     =  0.00000000
alpha( 1) =  0.00000000
U( 2)     =  0.00000000
alpha( 2) =  0.00000000
U( 3)     =  0.00000000
alpha( 3) = -0.07000000
U( 4)     =  0.00000000
alpha( 4) =  0.00000000
atom    1   Tr[ns(na)] (up, down, total) =   4.96210  3.72739  8.68949
   spin  1
    eigenvalues: 
  0.985  0.985  0.997  0.997  0.997
    eigenvectors:
  1.000  0.000  0.000  0.000  0.000
  0.000  0.000  0.500  0.079  0.421
  0.000  0.000  0.500  0.079  0.421
  0.000  1.000  0.000  0.000  0.000
  0.000  0.000  0.000  0.842  0.158
    occupations:
  0.985  0.000  0.000  0.000  0.000
  0.000  0.997  0.000  0.000  0.000
  0.000  0.000  0.997  0.000  0.000
  0.000  0.000  0.000  0.985  0.000
  0.000  0.000  0.000  0.000  0.997
   spin  2
    eigenvalues: 
  0.370  0.370  0.996  0.996  0.996
    eigenvectors:
  1.000  0.000  0.000  0.000  0.000
  0.000  0.000  0.157  0.500  0.343
  0.000  0.000  0.157  0.500  0.343
  0.000  1.000  0.000  0.000  0.000
  0.000  0.000  0.685  0.000  0.315
    occupations:
  0.370  0.000  0.000  0.000  0.001
  0.000  0.996  0.000  0.001  0.000
  0.000  0.000  0.996 -0.001  0.000
  0.000  0.001 -0.001  0.370  0.000
  0.001  0.000  0.000  0.000  0.996
atomic mag. moment =     1.234705
atom    2   Tr[ns(na)] (up, down, total) =   4.96210  3.72739  8.68949
   spin  1
    eigenvalues: 
  0.985  0.985  0.997  0.997  0.997
    eigenvectors:
  0.250  0.750  0.000  0.000  0.000
  0.000  0.000  0.000  0.842  0.158
  0.000  0.000  0.500  0.079  0.421
  0.750  0.250  0.000  0.000  0.000
  0.000  0.000  0.500  0.079  0.421
    occupations:
  0.985  0.000  0.000  0.000  0.000
  0.000  0.997  0.000  0.000  0.000
  0.000  0.000  0.997  0.000  0.000
  0.000  0.000  0.000  0.985  0.000
  0.000  0.000  0.000  0.000  0.997
   spin  2
    eigenvalues: 
  0.370  0.370  0.996  0.996  0.996
    eigenvectors:
  0.250  0.750  0.000  0.000  0.000
  0.000  0.000  0.685  0.000  0.315
  0.000  0.000  0.157  0.500  0.343
  0.750  0.250  0.000  0.000  0.000
  0.000  0.000  0.157  0.500  0.343
    occupations:
  0.370  0.000  0.000  0.000  0.001
  0.000  0.996  0.000  0.001  0.000
  0.000  0.000  0.996 -0.001  0.000
  0.000  0.001 -0.001  0.370  0.000
  0.001  0.000  0.000  0.000  0.996
atomic mag. moment =     1.234705
atom    3   Tr[ns(na)] (up, down, total) =   4.96210  3.72739  8.68949
   spin  1
    eigenvalues: 
  0.985  0.985  0.997  0.997  0.997
    eigenvectors:
  0.250  0.750  0.000  0.000  0.000
  0.000  0.000  0.500  0.079  0.421
  0.000  0.000  0.000  0.842  0.158
  0.750  0.250  0.000  0.000  0.000
  0.000  0.000  0.500  0.079  0.421
    occupations:
  0.985  0.000  0.000  0.000  0.000
  0.000  0.997  0.000  0.000  0.000
  0.000  0.000  0.997  0.000  0.000
  0.000  0.000  0.000  0.985  0.000
  0.000  0.000  0.000  0.000  0.997
   spin  2
    eigenvalues: 
  0.370  0.370  0.996  0.996  0.996
    eigenvectors:
  0.250  0.750  0.000  0.000  0.000
  0.000  0.000  0.157  0.500  0.343
  0.000  0.000  0.685  0.000  0.315
  0.750  0.250  0.000  0.000  0.000
  0.000  0.000  0.157  0.500  0.343
    occupations:
  0.370  0.000  0.000  0.000  0.001
  0.000  0.996  0.000  0.001  0.000
  0.000  0.000  0.996 -0.001  0.000
  0.000  0.001 -0.001  0.370  0.000
  0.001  0.000  0.000  0.000  0.996
atomic mag. moment =     1.234705
atom    4   Tr[ns(na)] (up, down, total) =   4.96210  3.72836  8.69046
   spin  1
    eigenvalues: 
  0.985  0.985  0.997  0.997  0.997
    eigenvectors:
  0.440  0.559  0.000  0.000  0.000
  0.000  0.000  0.207  0.459  0.333
  0.000  0.000  0.129  0.538  0.333
  0.559  0.440  0.000  0.000  0.000
  0.000  0.000  0.663  0.003  0.333
    occupations:
  0.985  0.000  0.000  0.000  0.000
  0.000  0.997  0.000  0.000  0.000
  0.000  0.000  0.997  0.000  0.000
  0.000  0.000  0.000  0.985  0.000
  0.000  0.000  0.000  0.000  0.997
   spin  2
    eigenvalues: 
  0.370  0.370  0.996  0.996  0.996
    eigenvectors:
  0.045  0.955  0.000  0.000  0.000
  0.000  0.000  0.012  0.654  0.333
  0.000  0.000  0.417  0.250  0.333
  0.955  0.045  0.000  0.000  0.000
  0.000  0.000  0.571  0.095  0.333
    occupations:
  0.370  0.000  0.000  0.000  0.001
  0.000  0.996  0.000  0.001  0.000
  0.000  0.000  0.996 -0.001  0.000
  0.000  0.001 -0.001  0.370  0.000
  0.001  0.000  0.000  0.000  0.996
atomic mag. moment =     1.233744
atom    5   Tr[ns(na)] (up, down, total) =   3.72835  4.96210  8.69045
   spin  1
    eigenvalues: 
  0.370  0.370  0.996  0.996  0.996
    eigenvectors:
  0.501  0.499  0.000  0.000  0.000
  0.000  0.000  0.177  0.489  0.333
  0.000  0.000  0.156  0.511  0.333
  0.499  0.501  0.000  0.000  0.000
  0.000  0.000  0.666  0.000  0.333
    occupations:
  0.370  0.000  0.000  0.000  0.001
  0.000  0.996  0.000  0.001  0.000
  0.000  0.000  0.996 -0.001  0.000
  0.000  0.001 -0.001  0.370  0.000
  0.001  0.000  0.000  0.000  0.996
   spin  2
    eigenvalues: 
  0.985  0.985  0.997  0.997  0.997
    eigenvectors:
  0.094  0.906  0.000  0.000  0.000
  0.000  0.000  0.145  0.522  0.333
  0.000  0.000  0.190  0.477  0.333
  0.906  0.094  0.000  0.000  0.000
  0.000  0.000  0.666  0.001  0.333
    occupations:
  0.985  0.000  0.000  0.000  0.000
  0.000  0.997  0.000  0.000  0.000
  0.000  0.000  0.997  0.000  0.000
  0.000  0.000  0.000  0.985  0.000
  0.000  0.000  0.000  0.000  0.997
atomic mag. moment =    -1.233753
atom    6   Tr[ns(na)] (up, down, total) =   3.72737  4.96209  8.68946
   spin  1
    eigenvalues: 
  0.370  0.370  0.996  0.996  0.996
    eigenvectors:
  0.250  0.750  0.000  0.000  0.000
  0.000  0.000  0.157  0.500  0.343
  0.000  0.000  0.686  0.000  0.314
  0.750  0.250  0.000  0.000  0.000
  0.000  0.000  0.157  0.500  0.343
    occupations:
  0.370  0.000  0.000  0.000  0.001
  0.000  0.996  0.000  0.001  0.000
  0.000  0.000  0.996 -0.001  0.000
  0.000  0.001 -0.001  0.370  0.000
  0.001  0.000  0.000  0.000  0.996
   spin  2
    eigenvalues: 
  0.985  0.985  0.997  0.997  0.997
    eigenvectors:
  0.250  0.750  0.000  0.000  0.000
  0.000  0.000  0.500  0.089  0.411
  0.000  0.000  0.000  0.822  0.178
  0.750  0.250  0.000  0.000  0.000
  0.000  0.000  0.500  0.089  0.411
    occupations:
  0.985  0.000  0.000  0.000  0.000
  0.000  0.997  0.000  0.000  0.000
  0.000  0.000  0.997  0.000  0.000
  0.000  0.000  0.000  0.985  0.000
  0.000  0.000  0.000  0.000  0.997
atomic mag. moment =    -1.234725
atom    7   Tr[ns(na)] (up, down, total) =   3.72737  4.96209  8.68946
   spin  1
    eigenvalues: 
  0.370  0.370  0.996  0.996  0.996
    eigenvectors:
  0.250  0.750  0.000  0.000  0.000
  0.000  0.000  0.686  0.000  0.314
  0.000  0.000  0.157  0.500  0.343
  0.750  0.250  0.000  0.000  0.000
  0.000  0.000  0.157  0.500  0.343
    occupations:
  0.370  0.000  0.000  0.000  0.001
  0.000  0.996  0.000  0.001  0.000
  0.000  0.000  0.996 -0.001  0.000
  0.000  0.001 -0.001  0.370  0.000
  0.001  0.000  0.000  0.000  0.996
   spin  2
    eigenvalues: 
  0.985  0.985  0.997  0.997  0.997
    eigenvectors:
  0.250  0.750  0.000  0.000  0.000
  0.000  0.000  0.000  0.822  0.178
  0.000  0.000  0.500  0.089  0.411
  0.750  0.250  0.000  0.000  0.000
  0.000  0.000  0.500  0.089  0.411
    occupations:
  0.985  0.000  0.000  0.000  0.000
  0.000  0.997  0.000  0.000  0.000
  0.000  0.000  0.997  0.000  0.000
  0.000  0.000  0.000  0.985  0.000
  0.000  0.000  0.000  0.000  0.997
atomic mag. moment =    -1.234725
atom    8   Tr[ns(na)] (up, down, total) =   3.72737  4.96209  8.68946
   spin  1
    eigenvalues: 
  0.370  0.370  0.996  0.996  0.996
    eigenvectors:
  1.000  0.000  0.000  0.000  0.000
  0.000  0.000  0.157  0.500  0.343
  0.000  0.000  0.157  0.500  0.343
  0.000  1.000  0.000  0.000  0.000
  0.000  0.000  0.686  0.000  0.314
    occupations:
  0.370  0.000  0.000  0.000  0.001
  0.000  0.996  0.000  0.001  0.000
  0.000  0.000  0.996 -0.001  0.000
  0.000  0.001 -0.001  0.370  0.000
  0.001  0.000  0.000  0.000  0.996
   spin  2
    eigenvalues: 
  0.985  0.985  0.997  0.997  0.997
    eigenvectors:
  1.000  0.000  0.000  0.000  0.000
  0.000  0.000  0.500  0.089  0.411
  0.000  0.000  0.500  0.089  0.411
  0.000  1.000  0.000  0.000  0.000
  0.000  0.000  0.000  0.822  0.178
    occupations:
  0.985  0.000  0.000  0.000  0.000
  0.000  0.997  0.000  0.000  0.000
  0.000  0.000  0.997  0.000  0.000
  0.000  0.000  0.000  0.985  0.000
  0.000  0.000  0.000  0.000  0.997
atomic mag. moment =    -1.234725
atom    9   Tr[ns(na)] (up, down, total) =   2.81705  2.81704  5.63409
   spin  1
    eigenvalues: 
  0.939  0.939  0.939
    eigenvectors:
  0.419  0.247  0.333
  0.569  0.097  0.333
  0.011  0.655  0.333
    occupations:
  0.939  0.000  0.000
  0.000  0.939  0.000
  0.000  0.000  0.939
   spin  2
    eigenvalues: 
  0.939  0.939  0.939
    eigenvectors:
  0.407  0.260  0.333
  0.578  0.088  0.333
  0.015  0.652  0.333
    occupations:
  0.939  0.000  0.000
  0.000  0.939  0.000
  0.000  0.000  0.939
atomic mag. moment =     0.000005
atom   10   Tr[ns(na)] (up, down, total) =   2.81401  2.81401  5.62802
   spin  1
    eigenvalues: 
  0.938  0.938  0.938
    eigenvectors:
  0.000  0.755  0.245
  0.500  0.122  0.378
  0.500  0.122  0.378
    occupations:
  0.938  0.000  0.000
  0.000  0.938  0.000
  0.000  0.000  0.938
   spin  2
    eigenvalues: 
  0.938  0.938  0.938
    eigenvectors:
  0.000  0.752  0.248
  0.500  0.124  0.376
  0.500  0.124  0.376
    occupations:
  0.938  0.000  0.000
  0.000  0.938  0.000
  0.000  0.000  0.938
atomic mag. moment =     0.000005
atom   11   Tr[ns(na)] (up, down, total) =   2.81401  2.81401  5.62802
   spin  1
    eigenvalues: 
  0.938  0.938  0.938
    eigenvectors:
  0.500  0.122  0.378
  0.000  0.755  0.245
  0.500  0.122  0.378
    occupations:
  0.938  0.000  0.000
  0.000  0.938  0.000
  0.000  0.000  0.938
   spin  2
    eigenvalues: 
  0.938  0.938  0.938
    eigenvectors:
  0.500  0.124  0.376
  0.000  0.752  0.248
  0.500  0.124  0.376
    occupations:
  0.938  0.000  0.000
  0.000  0.938  0.000
  0.000  0.000  0.938
atomic mag. moment =     0.000005
atom   12   Tr[ns(na)] (up, down, total) =   2.81401  2.81401  5.62802
   spin  1
    eigenvalues: 
  0.938  0.938  0.938
    eigenvectors:
  0.500  0.122  0.378
  0.500  0.122  0.378
  0.000  0.755  0.245
    occupations:
  0.938  0.000  0.000
  0.000  0.938  0.000
  0.000  0.000  0.938
   spin  2
    eigenvalues: 
  0.938  0.938  0.938
    eigenvectors:
  0.500  0.124  0.376
  0.500  0.124  0.376
  0.000  0.752  0.248
    occupations:
  0.938  0.000  0.000
  0.000  0.938  0.000
  0.000  0.000  0.938
atomic mag. moment =     0.000005
atom   13   Tr[ns(na)] (up, down, total) =   2.81403  2.81403  5.62806
   spin  1
    eigenvalues: 
  0.938  0.938  0.938
    eigenvectors:
  0.203  0.500  0.297
  0.595  0.000  0.405
  0.203  0.500  0.297
    occupations:
  0.938  0.000  0.000
  0.000  0.938  0.000
  0.000  0.000  0.938
   spin  2
    eigenvalues: 
  0.938  0.938  0.938
    eigenvectors:
  0.205  0.500  0.295
  0.590  0.000  0.410
  0.205  0.500  0.295
    occupations:
  0.938  0.000  0.000
  0.000  0.938  0.000
  0.000  0.000  0.938
atomic mag. moment =     0.000005
atom   14   Tr[ns(na)] (up, down, total) =   2.81403  2.81403  5.62806
   spin  1
    eigenvalues: 
  0.938  0.938  0.938
    eigenvectors:
  0.203  0.500  0.297
  0.203  0.500  0.297
  0.595  0.000  0.405
    occupations:
  0.938  0.000  0.000
  0.000  0.938  0.000
  0.000  0.000  0.938
   spin  2
    eigenvalues: 
  0.938  0.938  0.938
    eigenvectors:
  0.205  0.500  0.295
  0.205  0.500  0.295
  0.590  0.000  0.410
    occupations:
  0.938  0.000  0.000
  0.000  0.938  0.000
  0.000  0.000  0.938
atomic mag. moment =     0.000005
atom   15   Tr[ns(na)] (up, down, total) =   2.81403  2.81403  5.62806
   spin  1
    eigenvalues: 
  0.938  0.938  0.938
    eigenvectors:
  0.595  0.000  0.405
  0.203  0.500  0.297
  0.203  0.500  0.297
    occupations:
  0.938  0.000  0.000
  0.000  0.938  0.000
  0.000  0.000  0.938
   spin  2
    eigenvalues: 
  0.938  0.938  0.938
    eigenvectors:
  0.590  0.000  0.410
  0.205  0.500  0.295
  0.205  0.500  0.295
    occupations:
  0.938  0.000  0.000
  0.000  0.938  0.000
  0.000  0.000  0.938
atomic mag. moment =     0.000005
atom   16   Tr[ns(na)] (up, down, total) =   2.81373  2.81372  5.62745
   spin  1
    eigenvalues: 
  0.938  0.938  0.938
    eigenvectors:
  0.451  0.216  0.333
  0.545  0.122  0.333
  0.004  0.662  0.333
    occupations:
  0.938  0.000  0.000
  0.000  0.938  0.000
  0.000  0.000  0.938
   spin  2
    eigenvalues: 
  0.938  0.938  0.938
    eigenvectors:
  0.401  0.266  0.333
  0.582  0.084  0.333
  0.017  0.650  0.333
    occupations:
  0.938  0.000  0.000
  0.000  0.938  0.000
  0.000  0.000  0.938
atomic mag. moment =     0.000006
N of occupied +U levels = 114.5475743
 --- exit write_ns ---

     total cpu time spent up to now is       48.3 secs

     total energy              =    -942.02514808 Ry
     Harris-Foulkes estimate   =    -942.02517060 Ry
     estimated scf accuracy    <       0.00004961 Ry

     total magnetization       =     0.00 Bohr mag/cell
     absolute magnetization    =    12.66 Bohr mag/cell

     iteration #  2     ecut=    30.00 Ry     beta=0.30
     Davidson diagonalization with overlap
     ethr =  3.88E-08,  avg # of iterations =  2.0

     total cpu time spent up to now is       73.9 secs

     total energy              =    -942.02515961 Ry
     Harris-Foulkes estimate   =    -942.02516319 Ry
     estimated scf accuracy    <       0.00001070 Ry

     total magnetization       =     0.00 Bohr mag/cell
     absolute magnetization    =    12.66 Bohr mag/cell

     iteration #  3     ecut=    30.00 Ry     beta=0.30
     Davidson diagonalization with overlap
     ethr =  8.36E-09,  avg # of iterations =  2.0

     total cpu time spent up to now is       99.3 secs

     total energy              =    -942.02516126 Ry
     Harris-Foulkes estimate   =    -942.02516129 Ry
     estimated scf accuracy    <       0.00000019 Ry

     total magnetization       =     0.00 Bohr mag/cell
     absolute magnetization    =    12.66 Bohr mag/cell

     iteration #  4     ecut=    30.00 Ry     beta=0.30
     Davidson diagonalization with overlap
     ethr =  1.50E-10,  avg # of iterations =  2.0

     total cpu time spent up to now is      124.8 secs

     total energy              =    -942.02516127 Ry
     Harris-Foulkes estimate   =    -942.02516127 Ry
     estimated scf accuracy    <       0.00000007 Ry

     total magnetization       =     0.00 Bohr mag/cell
     absolute magnetization    =    12.66 Bohr mag/cell

     iteration #  5     ecut=    30.00 Ry     beta=0.30
     Davidson diagonalization with overlap
     ethr =  5.45E-11,  avg # of iterations =  2.0

     total cpu time spent up to now is      149.9 secs

     End of self-consistent calculation
 --- enter write_ns ---
 LDA+U parameters:
U( 1)     =  0.00000000
alpha( 1) =  0.00000000
U( 2)     =  0.00000000
alpha( 2) =  0.00000000
U( 3)     =  0.00000000
alpha( 3) = -0.07000000
U( 4)     =  0.00000000
alpha( 4) =  0.00000000
atom    1   Tr[ns(na)] (up, down, total) =   4.96210  3.72793  8.69003
   spin  1
    eigenvalues: 
  0.985  0.985  0.997  0.997  0.997
    eigenvectors:
  1.000  0.000  0.000  0.000  0.000
  0.000  0.000  0.500  0.485  0.015
  0.000  0.000  0.500  0.485  0.015
  0.000  1.000  0.000  0.000  0.000
  0.000  0.000  0.000  0.029  0.971
    occupations:
  0.985  0.000  0.000  0.000  0.000
  0.000  0.997  0.000  0.000  0.000
  0.000  0.000  0.997  0.000  0.000
  0.000  0.000  0.000  0.985  0.000
  0.000  0.000  0.000  0.000  0.997
   spin  2
    eigenvalues: 
  0.370  0.371  0.996  0.996  0.996
    eigenvectors:
  1.000  0.000  0.000  0.000  0.000
  0.000  0.000  0.500  0.168  0.332
  0.000  0.000  0.500  0.168  0.332
  0.000  1.000  0.000  0.000  0.000
  0.000  0.000  0.000  0.663  0.337
    occupations:
  0.370  0.000  0.000  0.000  0.001
  0.000  0.996  0.000  0.001  0.000
  0.000  0.000  0.996 -0.001  0.000
  0.000  0.001 -0.001  0.371  0.000
  0.001  0.000  0.000  0.000  0.996
atomic mag. moment =     1.234169
atom    2   Tr[ns(na)] (up, down, total) =   4.96210  3.72793  8.69003
   spin  1
    eigenvalues: 
  0.985  0.985  0.997  0.997  0.997
    eigenvectors:
  0.250  0.750  0.000  0.000  0.000
  0.000  0.000  0.000  0.029  0.971
  0.000  0.000  0.500  0.485  0.015
  0.750  0.250  0.000  0.000  0.000
  0.000  0.000  0.500  0.485  0.015
    occupations:
  0.985  0.000  0.000  0.000  0.000
  0.000  0.997  0.000  0.000  0.000
  0.000  0.000  0.997  0.000  0.000
  0.000  0.000  0.000  0.985  0.000
  0.000  0.000  0.000  0.000  0.997
   spin  2
    eigenvalues: 
  0.370  0.371  0.996  0.996  0.996
    eigenvectors:
  0.250  0.750  0.000  0.000  0.000
  0.000  0.000  0.000  0.663  0.337
  0.000  0.000  0.500  0.168  0.332
  0.750  0.250  0.000  0.000  0.000
  0.000  0.000  0.500  0.168  0.332
    occupations:
  0.370  0.000  0.000  0.000  0.001
  0.000  0.996  0.000  0.001  0.000
  0.000  0.000  0.996 -0.001  0.000
  0.000  0.001 -0.001  0.370  0.000
  0.001  0.000  0.000  0.000  0.996
atomic mag. moment =     1.234169
atom    3   Tr[ns(na)] (up, down, total) =   4.96210  3.72793  8.69003
   spin  1
    eigenvalues: 
  0.985  0.985  0.997  0.997  0.997
    eigenvectors:
  0.250  0.750  0.000  0.000  0.000
  0.000  0.000  0.500  0.485  0.015
  0.000  0.000  0.000  0.029  0.971
  0.750  0.250  0.000  0.000  0.000
  0.000  0.000  0.500  0.485  0.015
    occupations:
  0.985  0.000  0.000  0.000  0.000
  0.000  0.997  0.000  0.000  0.000
  0.000  0.000  0.997  0.000  0.000
  0.000  0.000  0.000  0.985  0.000
  0.000  0.000  0.000  0.000  0.997
   spin  2
    eigenvalues: 
  0.370  0.371  0.996  0.996  0.996
    eigenvectors:
  0.250  0.750  0.000  0.000  0.000
  0.000  0.000  0.500  0.168  0.332
  0.000  0.000  0.000  0.663  0.337
  0.750  0.250  0.000  0.000  0.000
  0.000  0.000  0.500  0.168  0.332
    occupations:
  0.370  0.000  0.000  0.000  0.001
  0.000  0.996  0.000  0.001  0.000
  0.000  0.000  0.996 -0.001  0.000
  0.000  0.001 -0.001  0.370  0.000
  0.001  0.000  0.000  0.000  0.996
atomic mag. moment =     1.234169
atom    4   Tr[ns(na)] (up, down, total) =   4.96210  3.72838  8.69048
   spin  1
    eigenvalues: 
  0.985  0.985  0.997  0.997  0.997
    eigenvectors:
  0.288  0.711  0.000  0.000  0.000
  0.000  0.000  0.143  0.524  0.333
  0.000  0.000  0.192  0.475  0.333
  0.711  0.288  0.000  0.000  0.000
  0.000  0.000  0.665  0.001  0.333
    occupations:
  0.985  0.000  0.000  0.000  0.000
  0.000  0.997  0.000  0.000  0.000
  0.000  0.000  0.997  0.000  0.000
  0.000  0.000  0.000  0.985  0.000
  0.000  0.000  0.000  0.000  0.997
   spin  2
    eigenvalues: 
  0.370  0.370  0.996  0.996  0.996
    eigenvectors:
  0.078  0.922  0.000  0.000  0.000
  0.000  0.000  0.125  0.542  0.333
  0.000  0.000  0.663  0.004  0.333
  0.922  0.078  0.000  0.000  0.000
  0.000  0.000  0.212  0.455  0.333
    occupations:
  0.370  0.000  0.000  0.000  0.001
  0.000  0.996  0.000  0.001  0.000
  0.000  0.000  0.996 -0.001  0.000
  0.000  0.001 -0.001  0.370  0.000
  0.001  0.000  0.000  0.000  0.996
atomic mag. moment =     1.233726
atom    5   Tr[ns(na)] (up, down, total) =   3.72838  4.96210  8.69048
   spin  1
    eigenvalues: 
  0.370  0.370  0.996  0.996  0.996
    eigenvectors:
  0.988  0.012  0.000  0.000  0.000
  0.000  0.000  0.123  0.544  0.333
  0.000  0.000  0.214  0.452  0.333
  0.012  0.988  0.000  0.000  0.000
  0.000  0.000  0.662  0.004  0.333
    occupations:
  0.370  0.000  0.000  0.000  0.001
  0.000  0.996  0.000  0.001  0.000
  0.000  0.000  0.996 -0.001  0.000
  0.000  0.001 -0.001  0.370  0.000
  0.001  0.000  0.000  0.000  0.996
   spin  2
    eigenvalues: 
  0.985  0.985  0.997  0.997  0.997
    eigenvectors:
  0.271  0.729  0.000  0.000  0.000
  0.000  0.000  0.126  0.540  0.333
  0.000  0.000  0.211  0.456  0.333
  0.729  0.271  0.000  0.000  0.000
  0.000  0.000  0.663  0.004  0.333
    occupations:
  0.985  0.000  0.000  0.000  0.000
  0.000  0.997  0.000  0.000  0.000
  0.000  0.000  0.997  0.000  0.000
  0.000  0.000  0.000  0.985  0.000
  0.000  0.000  0.000  0.000  0.997
atomic mag. moment =    -1.233726
atom    6   Tr[ns(na)] (up, down, total) =   3.72792  4.96210  8.69002
   spin  1
    eigenvalues: 
  0.370  0.371  0.996  0.996  0.996
    eigenvectors:
  0.250  0.750  0.000  0.000  0.000
  0.000  0.000  0.500  0.168  0.332
  0.000  0.000  0.000  0.664  0.336
  0.750  0.250  0.000  0.000  0.000
  0.000  0.000  0.500  0.168  0.332
    occupations:
  0.370  0.000  0.000  0.000  0.001
  0.000  0.996  0.000  0.001  0.000
  0.000  0.000  0.996 -0.001  0.000
  0.000  0.001 -0.001  0.370  0.000
  0.001  0.000  0.000  0.000  0.996
   spin  2
    eigenvalues: 
  0.985  0.985  0.997  0.997  0.997
    eigenvectors:
  0.250  0.750  0.000  0.000  0.000
  0.000  0.000  0.500  0.486  0.014
  0.000  0.000  0.000  0.028  0.972
  0.750  0.250  0.000  0.000  0.000
  0.000  0.000  0.500  0.486  0.014
    occupations:
  0.985  0.000  0.000  0.000  0.000
  0.000  0.997  0.000  0.000  0.000
  0.000  0.000  0.997  0.000  0.000
  0.000  0.000  0.000  0.985  0.000
  0.000  0.000  0.000  0.000  0.997
atomic mag. moment =    -1.234177
atom    7   Tr[ns(na)] (up, down, total) =   3.72792  4.96210  8.69002
   spin  1
    eigenvalues: 
  0.370  0.371  0.996  0.996  0.996
    eigenvectors:
  0.250  0.750  0.000  0.000  0.000
  0.000  0.000  0.000  0.664  0.336
  0.000  0.000  0.500  0.168  0.332
  0.750  0.250  0.000  0.000  0.000
  0.000  0.000  0.500  0.168  0.332
    occupations:
  0.370  0.000  0.000  0.000  0.001
  0.000  0.996  0.000  0.001  0.000
  0.000  0.000  0.996 -0.001  0.000
  0.000  0.001 -0.001  0.370  0.000
  0.001  0.000  0.000  0.000  0.996
   spin  2
    eigenvalues: 
  0.985  0.985  0.997  0.997  0.997
    eigenvectors:
  0.250  0.750  0.000  0.000  0.000
  0.000  0.000  0.000  0.028  0.972
  0.000  0.000  0.500  0.486  0.014
  0.750  0.250  0.000  0.000  0.000
  0.000  0.000  0.500  0.486  0.014
    occupations:
  0.985  0.000  0.000  0.000  0.000
  0.000  0.997  0.000  0.000  0.000
  0.000  0.000  0.997  0.000  0.000
  0.000  0.000  0.000  0.985  0.000
  0.000  0.000  0.000  0.000  0.997
atomic mag. moment =    -1.234177
atom    8   Tr[ns(na)] (up, down, total) =   3.72792  4.96210  8.69002
   spin  1
    eigenvalues: 
  0.370  0.371  0.996  0.996  0.996
    eigenvectors:
  1.000  0.000  0.000  0.000  0.000
  0.000  0.000  0.500  0.168  0.332
  0.000  0.000  0.500  0.168  0.332
  0.000  1.000  0.000  0.000  0.000
  0.000  0.000  0.000  0.664  0.336
    occupations:
  0.370  0.000  0.000  0.000  0.001
  0.000  0.996  0.000  0.001  0.000
  0.000  0.000  0.996 -0.001  0.000
  0.000  0.001 -0.001  0.371  0.000
  0.001  0.000  0.000  0.000  0.996
   spin  2
    eigenvalues: 
  0.985  0.985  0.997  0.997  0.997
    eigenvectors:
  1.000  0.000  0.000  0.000  0.000
  0.000  0.000  0.500  0.486  0.014
  0.000  0.000  0.500  0.486  0.014
  0.000  1.000  0.000  0.000  0.000
  0.000  0.000  0.000  0.028  0.972
    occupations:
  0.985  0.000  0.000  0.000  0.000
  0.000  0.997  0.000  0.000  0.000
  0.000  0.000  0.997  0.000  0.000
  0.000  0.000  0.000  0.985  0.000
  0.000  0.000  0.000  0.000  0.997
atomic mag. moment =    -1.234177
atom    9   Tr[ns(na)] (up, down, total) =   2.81524  2.81523  5.63047
   spin  1
    eigenvalues: 
  0.938  0.938  0.938
    eigenvectors:
  0.426  0.240  0.333
  0.564  0.103  0.333
  0.010  0.657  0.333
    occupations:
  0.938  0.000  0.000
  0.000  0.938  0.000
  0.000  0.000  0.938
   spin  2
    eigenvalues: 
  0.938  0.938  0.938
    eigenvectors:
  0.463  0.203  0.333
  0.534  0.132  0.333
  0.003  0.664  0.333
    occupations:
  0.938  0.000  0.000
  0.000  0.938  0.000
  0.000  0.000  0.938
atomic mag. moment =     0.000002
atom   10   Tr[ns(na)] (up, down, total) =   2.81401  2.81401  5.62801
   spin  1
    eigenvalues: 
  0.938  0.938  0.938
    eigenvectors:
  0.000  0.687  0.313
  0.500  0.156  0.344
  0.500  0.156  0.344
    occupations:
  0.938  0.000  0.000
  0.000  0.938  0.000
  0.000  0.000  0.938
   spin  2
    eigenvalues: 
  0.938  0.938  0.938
    eigenvectors:
  0.000  0.684  0.316
  0.500  0.158  0.342
  0.500  0.158  0.342
    occupations:
  0.938  0.000  0.000
  0.000  0.938  0.000
  0.000  0.000  0.938
atomic mag. moment =     0.000001
atom   11   Tr[ns(na)] (up, down, total) =   2.81401  2.81401  5.62801
   spin  1
    eigenvalues: 
  0.938  0.938  0.938
    eigenvectors:
  0.500  0.156  0.344
  0.000  0.687  0.313
  0.500  0.156  0.344
    occupations:
  0.938  0.000  0.000
  0.000  0.938  0.000
  0.000  0.000  0.938
   spin  2
    eigenvalues: 
  0.938  0.938  0.938
    eigenvectors:
  0.500  0.158  0.342
  0.000  0.684  0.316
  0.500  0.158  0.342
    occupations:
  0.938  0.000  0.000
  0.000  0.938  0.000
  0.000  0.000  0.938
atomic mag. moment =     0.000001
atom   12   Tr[ns(na)] (up, down, total) =   2.81401  2.81401  5.62801
   spin  1
    eigenvalues: 
  0.938  0.938  0.938
    eigenvectors:
  0.500  0.156  0.344
  0.500  0.156  0.344
  0.000  0.687  0.313
    occupations:
  0.938  0.000  0.000
  0.000  0.938  0.000
  0.000  0.000  0.938
   spin  2
    eigenvalues: 
  0.938  0.938  0.938
    eigenvectors:
  0.500  0.158  0.342
  0.500  0.158  0.342
  0.000  0.684  0.316
    occupations:
  0.938  0.000  0.000
  0.000  0.938  0.000
  0.000  0.000  0.938
atomic mag. moment =     0.000001
atom   13   Tr[ns(na)] (up, down, total) =   2.81401  2.81401  5.62802
   spin  1
    eigenvalues: 
  0.938  0.938  0.938
    eigenvectors:
  0.197  0.500  0.303
  0.606  0.000  0.394
  0.197  0.500  0.303
    occupations:
  0.938  0.000  0.000
  0.000  0.938  0.000
  0.000  0.000  0.938
   spin  2
    eigenvalues: 
  0.938  0.938  0.938
    eigenvectors:
  0.199  0.500  0.301
  0.603  0.000  0.397
  0.199  0.500  0.301
    occupations:
  0.938  0.000  0.000
  0.000  0.938  0.000
  0.000  0.000  0.938
atomic mag. moment =     0.000001
atom   14   Tr[ns(na)] (up, down, total) =   2.81401  2.81401  5.62802
   spin  1
    eigenvalues: 
  0.938  0.938  0.938
    eigenvectors:
  0.197  0.500  0.303
  0.197  0.500  0.303
  0.606  0.000  0.394
    occupations:
  0.938  0.000  0.000
  0.000  0.938  0.000
  0.000  0.000  0.938
   spin  2
    eigenvalues: 
  0.938  0.938  0.938
    eigenvectors:
  0.199  0.500  0.301
  0.199  0.500  0.301
  0.603  0.000  0.397
    occupations:
  0.938  0.000  0.000
  0.000  0.938  0.000
  0.000  0.000  0.938
atomic mag. moment =     0.000001
atom   15   Tr[ns(na)] (up, down, total) =   2.81401  2.81401  5.62802
   spin  1
    eigenvalues: 
  0.938  0.938  0.938
    eigenvectors:
  0.606  0.000  0.394
  0.197  0.500  0.303
  0.197  0.500  0.303
    occupations:
  0.938  0.000  0.000
  0.000  0.938  0.000
  0.000  0.000  0.938
   spin  2
    eigenvalues: 
  0.938  0.938  0.938
    eigenvectors:
  0.603  0.000  0.397
  0.199  0.500  0.301
  0.199  0.500  0.301
    occupations:
  0.938  0.000  0.000
  0.000  0.938  0.000
  0.000  0.000  0.938
atomic mag. moment =     0.000001
atom   16   Tr[ns(na)] (up, down, total) =   2.81403  2.81403  5.62806
   spin  1
    eigenvalues: 
  0.938  0.938  0.938
    eigenvectors:
  0.475  0.192  0.333
  0.524  0.143  0.333
  0.001  0.665  0.333
    occupations:
  0.938  0.000  0.000
  0.000  0.938  0.000
  0.000  0.000  0.938
   spin  2
    eigenvalues: 
  0.938  0.938  0.938
    eigenvectors:
  0.400  0.267  0.333
  0.583  0.084  0.333
  0.017  0.649  0.333
    occupations:
  0.938  0.000  0.000
  0.000  0.938  0.000
  0.000  0.000  0.938
atomic mag. moment =     0.000002
N of occupied +U levels = 114.5477421
 --- exit write_ns ---

 ------ SPIN UP ------------


          k = 0.0000 0.0000 0.0000 (  2733 PWs)   bands (ev):

    -8.0389  -6.6441  -6.6440  -6.6440  -6.6342  -6.5760  -6.5760  -6.5650
     4.0335   4.0335   4.0349   4.0450   5.3462   5.3462   5.3462   6.5112
     6.5112   6.5248   6.5248   6.5286   6.5490   6.5596   6.5596   7.9812
     7.9812   7.9821   7.9916   7.9926   7.9926   8.7938   8.7938   8.7938
     9.2962   9.2962   9.2984   9.5082   9.5082   9.6510   9.8413   9.8413
     9.8888   9.8888   9.8889  10.1753  10.1754  10.1754  10.4464  10.4464
    10.4465  10.5556  10.5556  10.5556  10.8863  10.8863  11.0120  11.0128
    11.0128  11.1536  11.2384  11.2388  11.2388  11.3594  11.3594  11.3599
    13.5587  13.5587  13.6193  13.6193  13.6194  13.7046  13.7051  13.7051
    13.7721  17.8033  17.8048  17.8048  17.8069

          k = 0.2500-0.2500-0.2500 (  2764 PWs)   bands (ev):

    -7.4073  -7.4001  -6.6216  -6.6207  -6.6178  -6.6153  -6.6129  -6.5973
     5.0537   5.0568   5.0727   5.0810   5.0843   5.0904   6.1003   6.1132
     6.3168   6.3274   6.3854   6.3930   6.4631   6.4708   6.8363   6.8441
     7.0149   7.0213   7.3282   7.3324   7.4889   7.4937   7.6522   7.6604
     9.5849   9.5852   9.7767   9.7767   9.8482   9.8489   9.9775   9.9777
    10.1170  10.1177  10.1674  10.1676  10.4866  10.4878  10.6059  10.6072
    10.6374  10.6381  10.8338  10.8345  10.9337  10.9346  11.2163  11.2172
    11.2289  11.2300  11.2734  11.2743  11.3047  11.3054  11.4146  11.4163
    13.0567  13.0572  13.0612  13.0614  13.0687  13.0688  13.0812  13.0814
    16.5008  16.5023  19.6619  19.6619  19.7224

          k = 0.0000 0.0000-0.5000 (  2762 PWs)   bands (ev):

    -7.2696  -7.2633  -6.7726  -6.7725  -6.7721  -6.7605  -6.4676  -6.4613
     5.0165   5.0268   5.0294   5.0406   5.7722   5.7836   6.1086   6.1122
     6.1209   6.1246   6.4042   6.4143   6.6374   6.6454   6.6712   6.6794
     6.7221   6.7388   6.7426   6.7455   8.1639   8.1724   8.1738   8.1823
     9.2068   9.2072   9.8922   9.8928   9.9739   9.9742   9.9975   9.9976
    10.0118  10.0136  10.1253  10.1255  10.3135  10.3137  10.4458  10.4466
    10.4775  10.4791  10.5497  10.5499  10.8878  10.8879  10.9737  10.9745
    11.1265  11.1269  11.2095  11.2104  11.3091  11.3098  11.3240  11.3245
    12.4727  12.4730  12.7301  12.7303  13.5301  13.5308  13.6321  13.6326
    17.6879  17.6881  19.2706  19.2708  19.2712

          k =-0.2500-0.2500-0.2500 (  2764 PWs)   bands (ev):

    -7.4095  -7.3980  -6.6278  -6.6278  -6.6230  -6.6066  -6.6066  -6.5934
     5.0159   5.0159   5.0275   5.1235   5.1235   5.1335   6.0876   6.1297
     6.2456   6.2595   6.2595   6.6976   6.7130   6.7130   6.7345   6.7345
     6.7406   6.9570   6.9570   7.4705   7.4705   7.4777   7.8890   7.8890
     9.4397   9.4397   9.4398   9.6199   9.6199  10.0631  10.0633  10.0633
    10.0788  10.4291  10.4294  10.4294  10.4608  10.4608  10.4610  10.7027
    10.7027  10.7978  10.8002  10.8002  10.8508  11.0274  11.0274  11.0290
    11.2185  11.2189  11.2189  11.2857  11.2857  11.3780  11.3780  11.3784
    13.0564  13.0565  13.0565  13.0763  13.0763  13.0867  13.0867  13.0869
    16.4247  16.5814  19.6402  19.6402  19.6403

 ------ SPIN DOWN ----------


          k = 0.0000 0.0000 0.0000 (  2733 PWs)   bands (ev):

    -8.0389  -6.6441  -6.6440  -6.6440  -6.6342  -6.5760  -6.5760  -6.5650
     4.0335   4.0335   4.0349   4.0450   5.3462   5.3462   5.3462   6.5112
     6.5112   6.5248   6.5248   6.5286   6.5490   6.5596   6.5596   7.9812
     7.9812   7.9821   7.9916   7.9926   7.9926   8.7938   8.7938   8.7938
     9.2962   9.2962   9.2984   9.5082   9.5082   9.6510   9.8413   9.8413
     9.8888   9.8888   9.8890  10.1753  10.1755  10.1755  10.4465  10.4465
    10.4465  10.5556  10.5556  10.5557  10.8862  10.8862  11.0120  11.0127
    11.0127  11.1536  11.2384  11.2388  11.2388  11.3594  11.3594  11.3599
    13.5586  13.5586  13.6193  13.6193  13.6194  13.7046  13.7050  13.7050
    13.7721  17.8033  17.8048  17.8048  17.8069

          k = 0.2500-0.2500-0.2500 (  2764 PWs)   bands (ev):

    -7.4073  -7.4001  -6.6216  -6.6207  -6.6178  -6.6153  -6.6129  -6.5973
     5.0537   5.0568   5.0727   5.0810   5.0843   5.0904   6.1003   6.1132
     6.3168   6.3274   6.3855   6.3930   6.4631   6.4708   6.8363   6.8441
     7.0149   7.0213   7.3282   7.3324   7.4889   7.4937   7.6522   7.6604
     9.5849   9.5853   9.7767   9.7768   9.8482   9.8489   9.9775   9.9777
    10.1170  10.1178  10.1674  10.1676  10.4866  10.4878  10.6059  10.6071
    10.6373  10.6381  10.8338  10.8345  10.9337  10.9346  11.2163  11.2172
    11.2289  11.2300  11.2734  11.2743  11.3047  11.3054  11.4146  11.4162
    13.0567  13.0572  13.0611  13.0614  13.0686  13.0687  13.0811  13.0813
    16.5008  16.5023  19.6619  19.6619  19.7224

          k = 0.0000 0.0000-0.5000 (  2762 PWs)   bands (ev):

    -7.2696  -7.2633  -6.7726  -6.7725  -6.7721  -6.7605  -6.4676  -6.4613
     5.0165   5.0268   5.0294   5.0406   5.7722   5.7836   6.1086   6.1122
     6.1209   6.1246   6.4042   6.4143   6.6374   6.6455   6.6712   6.6794
     6.7221   6.7388   6.7426   6.7455   8.1639   8.1724   8.1738   8.1823
     9.2068   9.2072   9.8923   9.8929   9.9740   9.9743   9.9976   9.9976
    10.0118  10.0136  10.1253  10.1255  10.3135  10.3138  10.4458  10.4466
    10.4775  10.4791  10.5497  10.5499  10.8878  10.8878  10.9737  10.9745
    11.1265  11.1269  11.2095  11.2103  11.3090  11.3097  11.3240  11.3244
    12.4726  12.4730  12.7301  12.7303  13.5301  13.5308  13.6320  13.6326
    17.6879  17.6881  19.2706  19.2708  19.2712

          k =-0.2500-0.2500-0.2500 (  2764 PWs)   bands (ev):

    -7.4095  -7.3980  -6.6278  -6.6278  -6.6230  -6.6066  -6.6066  -6.5934
     5.0159   5.0159   5.0275   5.1235   5.1235   5.1335   6.0876   6.1297
     6.2456   6.2595   6.2595   6.6976   6.7130   6.7130   6.7345   6.7345
     6.7406   6.9570   6.9570   7.4705   7.4705   7.4777   7.8890   7.8890
     9.4398   9.4398   9.4399   9.6199   9.6199  10.0632  10.0634  10.0634
    10.0788  10.4290  10.4294  10.4294  10.4608  10.4608  10.4610  10.7027
    10.7027  10.7978  10.8002  10.8002  10.8507  11.0275  11.0275  11.0291
    11.2185  11.2188  11.2188  11.2857  11.2857  11.3779  11.3779  11.3784
    13.0564  13.0564  13.0564  13.0763  13.0763  13.0867  13.0867  13.0868
    16.4247  16.5814  19.6402  19.6402  19.6403

     the Fermi energy is    11.9447 ev

!    total energy              =    -942.02516127 Ry
     Harris-Foulkes estimate   =    -942.02516127 Ry
     estimated scf accuracy    <          7.8E-09 Ry

     The total energy is the sum of the following terms:

     one-electron contribution =     -56.24615501 Ry
     hartree contribution      =     175.69653684 Ry
     xc contribution           =    -297.58916903 Ry
     ewald contribution        =    -763.85740583 Ry
     Hubbard energy            =      -0.02896823 Ry
     smearing contrib. (-TS)   =       0.00000000 Ry

     total magnetization       =     0.00 Bohr mag/cell
     absolute magnetization    =    12.66 Bohr mag/cell

     convergence has been achieved in   5 iterations

     Writing output data file nio.save
 
     init_run     :     13.45s CPU     14.37s WALL (       1 calls)
     electrons    :    128.78s CPU    135.39s WALL (       1 calls)

     Called by init_run:
     wfcinit      :      0.19s CPU      0.21s WALL (       1 calls)
     potinit      :      1.19s CPU      1.42s WALL (       1 calls)

     Called by electrons:
     c_bands      :     25.76s CPU     27.12s WALL (       5 calls)
     sum_band     :     50.89s CPU     51.74s WALL (       5 calls)
     v_of_rho     :      5.78s CPU      6.52s WALL (       6 calls)
     newd         :     54.98s CPU     59.04s WALL (       6 calls)
     mix_rho      :      0.76s CPU      0.86s WALL (       5 calls)

     Called by c_bands:
     init_us_2    :      0.23s CPU      0.24s WALL (      22 calls)
     cegterg      :     24.16s CPU     25.33s WALL (      10 calls)

     Called by *egterg:
     h_psi        :     16.97s CPU     17.66s WALL (      58 calls)
     s_psi        :      1.53s CPU      1.54s WALL (      60 calls)
     g_psi        :      0.08s CPU      0.08s WALL (      48 calls)
     cdiaghg      :      1.61s CPU      1.60s WALL (      56 calls)

     Called by h_psi:
     add_vuspsi   :      1.40s CPU      1.43s WALL (      58 calls)

     General routines
     calbec       :      2.47s CPU      2.45s WALL (     138 calls)
     fft          :      5.05s CPU      5.67s WALL (     174 calls)
     ffts         :      0.05s CPU      0.07s WALL (      22 calls)
     fftw         :      8.86s CPU      9.59s WALL (    5002 calls)
     interpolate  :      0.74s CPU      0.93s WALL (      22 calls)
     davcio       :      0.00s CPU      0.32s WALL (      64 calls)
 
     Parallel routines
     fft_scatter  :      2.55s CPU      2.99s WALL (    5198 calls)
     EXX routines
 
     PWSCF        :  2m22.55s CPU     2m30.21s WALL

 
   This run was terminated on:  12:22:36  17Jun2012            

=------------------------------------------------------------------------------=
   JOB DONE.
=------------------------------------------------------------------------------=
