
     Program PWSCF v.5.0        starts on 17Jun2012 at 12:22:37 

     This program is part of the open-source Quantum ESPRESSO suite
     for quantum simulation of materials; please cite
         "P. Giannozzi et al., J. Phys.:Condens. Matter 21 395502 (2009);
          URL http://www.quantum-espresso.org", 
     in publications or presentations arising from this work. More details at
     http://www.quantum-espresso.org/quote.php

     Parallel version (MPI), running on     4 processors
     K-points division:     npool     =    4

     Current dimensions of program PWSCF are:
     Max number of different atomic species (ntypx) = 10
     Max number of k-points (npk) =  40000
     Max angular momentum in pseudopotentials (lmaxx) =  3
     Waiting for input...
     Reading input from standard input
               file Ni.pbe-nd-rrkjus.UPF: wavefunction(s)  4S renormalized
               file Ni.pbe-nd-rrkjus.UPF: wavefunction(s)  4S renormalized
               file O.pbe-rrkjus.UPF: wavefunction(s)  2S renormalized
               file O.pbe-rrkjus.UPF: wavefunction(s)  2S renormalized

     Subspace diagonalization in iterative solution of the eigenvalue problem:
     a serial algorithm will be used

 
     G-vector sticks info
     --------------------
     sticks:   dense  smooth     PW     G-vecs:    dense   smooth      PW
     Sum        2587    1039    295                86547    22075    3287
 


     bravais-lattice index     =            0
     lattice parameter (alat)  =       7.9000  a.u.
     unit-cell volume          =     986.0780 (a.u.)^3
     number of atoms/cell      =           16
     number of atomic types    =            4
     number of electrons       =       128.00
     number of Kohn-Sham states=           77
     kinetic-energy cutoff     =      30.0000  Ry
     charge density cutoff     =     300.0000  Ry
     convergence threshold     =      1.0E-08
     mixing beta               =       0.3000
     number of iterations used =            8  plain     mixing
     Exchange-correlation      =  SLA  PW   PBE  PBE ( 1 4 3 4 0)
     EXX-fraction              =        0.00

     celldm(1)=   7.900000  celldm(2)=   0.000000  celldm(3)=   0.000000
     celldm(4)=   0.000000  celldm(5)=   0.000000  celldm(6)=   0.000000

     crystal axes: (cart. coord. in units of alat)
               a(1) = (   1.000000   1.000000   0.000000 )  
               a(2) = (   1.000000   0.000000   1.000000 )  
               a(3) = (   0.000000   1.000000   1.000000 )  

     reciprocal axes: (cart. coord. in units 2 pi/alat)
               b(1) = (  0.500000  0.500000 -0.500000 )  
               b(2) = (  0.500000 -0.500000  0.500000 )  
               b(3) = ( -0.500000  0.500000  0.500000 )  


     PseudoPot. # 1 for Ni read from file:
     ../pseudo/Ni.pbe-nd-rrkjus.UPF
     MD5 check sum: 8081f0a005c9a5470caab1a58e82ecb2
     Pseudo is Ultrasoft + core correction, Zval = 10.0
     Generated by new atomic code, or converted to UPF format
     Using radial grid of 1203 points,  6 beta functions with: 
                l(1) =   0
                l(2) =   0
                l(3) =   1
                l(4) =   1
                l(5) =   2
                l(6) =   2
     Q(r) pseudized with 0 coefficients 


     PseudoPot. # 2 for Ni read from file:
     ../pseudo/Ni.pbe-nd-rrkjus.UPF
     MD5 check sum: 8081f0a005c9a5470caab1a58e82ecb2
     Pseudo is Ultrasoft + core correction, Zval = 10.0
     Generated by new atomic code, or converted to UPF format
     Using radial grid of 1203 points,  6 beta functions with: 
                l(1) =   0
                l(2) =   0
                l(3) =   1
                l(4) =   1
                l(5) =   2
                l(6) =   2
     Q(r) pseudized with 0 coefficients 


     PseudoPot. # 3 for O  read from file:
     ../pseudo/O.pbe-rrkjus.UPF
     MD5 check sum: 390ba29e75625707450f3bd3f0eb6be9
     Pseudo is Ultrasoft, Zval =  6.0
     Generated by new atomic code, or converted to UPF format
     Using radial grid of 1269 points,  4 beta functions with: 
                l(1) =   0
                l(2) =   0
                l(3) =   1
                l(4) =   1
     Q(r) pseudized with 0 coefficients 


     PseudoPot. # 4 for O  read from file:
     ../pseudo/O.pbe-rrkjus.UPF
     MD5 check sum: 390ba29e75625707450f3bd3f0eb6be9
     Pseudo is Ultrasoft, Zval =  6.0
     Generated by new atomic code, or converted to UPF format
     Using radial grid of 1269 points,  4 beta functions with: 
                l(1) =   0
                l(2) =   0
                l(3) =   1
                l(4) =   1
     Q(r) pseudized with 0 coefficients 


     atomic species   valence    mass     pseudopotential
        Ni1           10.00     1.00000     Ni( 1.00)
        Ni2           10.00     1.00000     Ni( 1.00)
        O1             6.00     1.00000     O ( 1.00)
        O2             6.00     1.00000     O ( 1.00)

     Starting magnetic structure 
     atomic species   magnetization
        Ni1          0.500
        Ni2         -0.500
        O1           0.000
        O2           0.000
 -----
     simplified LDA+U calculation, Hubbard_lmax = 2
     atomic species  L   Hubbard U  Hubbard alpha
        Ni1          2    0.000000    0.000000
        Ni2          2    0.000000    0.000000
        O1           1    0.000000    0.070000
        O2           1    0.000000    0.000000
 -----

      6 Sym. Ops. (no inversion) found



   Cartesian axes

     site n.     atom                  positions (alat units)
         1           Ni1 tau(   1) = (   0.0000000   0.0000000  -0.5000000  )
         2           Ni1 tau(   2) = (   1.0000000   0.5000000   0.0000000  )
         3           Ni1 tau(   3) = (   0.5000000   1.0000000   0.0000000  )
         4           Ni1 tau(   4) = (   0.5000000   0.5000000   0.5000000  )
         5           Ni2 tau(   5) = (   0.5000000   0.5000000  -0.5000000  )
         6           Ni2 tau(   6) = (   0.5000000   0.0000000   0.0000000  )
         7           Ni2 tau(   7) = (   0.0000000   0.5000000   0.0000000  )
         8           Ni2 tau(   8) = (   1.0000000   1.0000000   0.5000000  )
         9           O1  tau(   9) = (   0.0000000   0.0000000   0.0000000  )
        10           O2  tau(  10) = (   0.5000000   0.5000000   0.0000000  )
        11           O2  tau(  11) = (   0.0000000   0.5000000   0.5000000  )
        12           O2  tau(  12) = (   0.5000000   0.0000000   0.5000000  )
        13           O2  tau(  13) = (   1.0000000   0.5000000   0.5000000  )
        14           O2  tau(  14) = (   0.5000000   1.0000000   0.5000000  )
        15           O2  tau(  15) = (   0.5000000   0.5000000   1.0000000  )
        16           O2  tau(  16) = (   1.0000000   1.0000000   1.0000000  )

     number of k points=     8  gaussian smearing, width (Ry)=  0.0100
                       cart. coord. in units 2pi/alat
        k(    1) = (   0.0000000   0.0000000   0.0000000), wk =   0.1250000
        k(    2) = (   0.2500000  -0.2500000  -0.2500000), wk =   0.3750000
        k(    3) = (   0.0000000   0.0000000  -0.5000000), wk =   0.3750000
        k(    4) = (  -0.2500000  -0.2500000  -0.2500000), wk =   0.1250000
        k(    5) = (   0.0000000   0.0000000   0.0000000), wk =   0.1250000
        k(    6) = (   0.2500000  -0.2500000  -0.2500000), wk =   0.3750000
        k(    7) = (   0.0000000   0.0000000  -0.5000000), wk =   0.3750000
        k(    8) = (  -0.2500000  -0.2500000  -0.2500000), wk =   0.1250000

     Dense  grid:    86547 G-vectors     FFT dimensions: (  64,  64,  64)

     Smooth grid:    22075 G-vectors     FFT dimensions: (  40,  40,  40)

     Largest allocated arrays     est. size (Mb)     dimensions
        Kohn-Sham Wavefunctions         3.25 Mb     (   2764,   77)
        Atomic wavefunctions            3.37 Mb     (   2764,   80)
        NL pseudopotentials             8.77 Mb     (   2764,  208)
        Each V/rho on FFT grid          8.00 Mb     ( 262144,   2)
        Each G-vector array             0.66 Mb     (  86547)
        G-vector shells                 0.00 Mb     (    635)
     Largest temporary arrays     est. size (Mb)     dimensions
        Auxiliary wavefunctions        12.99 Mb     (   2764,  308)
        Each subspace H/S matrix        1.45 Mb     ( 308, 308)
        Each <psi_i|beta_j> matrix      0.24 Mb     (    208,   77)
        Arrays for rho mixing          32.00 Mb     ( 262144,   8)

     Check: negative/imaginary core charge=   -0.000047    0.000000

     The initial density is read from file :
     ./temp/nio.save/charge-density.dat

     Number of +U iterations with fixed ns =  0
     Starting occupations:
 --- enter write_ns ---
 LDA+U parameters:
U( 1)     =  0.00000000
alpha( 1) =  0.00000000
U( 2)     =  0.00000000
alpha( 2) =  0.00000000
U( 3)     =  0.00000000
alpha( 3) =  0.07000000
U( 4)     =  0.00000000
alpha( 4) =  0.00000000
atom    1   Tr[ns(na)] (up, down, total) =   4.96210  3.72838  8.69048
   spin  1
    eigenvalues: 
  0.985  0.985  0.997  0.997  0.997
    eigenvectors:
  1.000  0.000  0.000  0.000  0.000
  0.000  0.000  0.500  0.170  0.330
  0.000  0.000  0.500  0.170  0.330
  0.000  1.000  0.000  0.000  0.000
  0.000  0.000  0.000  0.660  0.339
    occupations:
  0.985  0.000  0.000  0.000  0.000
  0.000  0.997  0.000  0.000  0.000
  0.000  0.000  0.997  0.000  0.000
  0.000  0.000  0.000  0.985  0.000
  0.000  0.000  0.000  0.000  0.997
   spin  2
    eigenvalues: 
  0.370  0.370  0.996  0.996  0.996
    eigenvectors:
  0.000  1.000  0.000  0.000  0.000
  0.000  0.000  0.167  0.500  0.333
  0.000  0.000  0.167  0.500  0.333
  1.000  0.000  0.000  0.000  0.000
  0.000  0.000  0.667  0.000  0.333
    occupations:
  0.370  0.000  0.000  0.000  0.001
  0.000  0.996  0.000  0.001  0.000
  0.000  0.000  0.996 -0.001  0.000
  0.000  0.001 -0.001  0.370  0.000
  0.001  0.000  0.000  0.000  0.996
atomic mag. moment =     1.233727
atom    2   Tr[ns(na)] (up, down, total) =   4.96210  3.72838  8.69048
   spin  1
    eigenvalues: 
  0.985  0.985  0.997  0.997  0.997
    eigenvectors:
  0.250  0.750  0.000  0.000  0.000
  0.000  0.000  0.000  0.660  0.339
  0.000  0.000  0.500  0.170  0.330
  0.750  0.250  0.000  0.000  0.000
  0.000  0.000  0.500  0.170  0.330
    occupations:
  0.985  0.000  0.000  0.000  0.000
  0.000  0.997  0.000  0.000  0.000
  0.000  0.000  0.997  0.000  0.000
  0.000  0.000  0.000  0.985  0.000
  0.000  0.000  0.000  0.000  0.997
   spin  2
    eigenvalues: 
  0.370  0.370  0.996  0.996  0.996
    eigenvectors:
  0.750  0.250  0.000  0.000  0.000
  0.000  0.000  0.667  0.000  0.333
  0.000  0.000  0.167  0.500  0.333
  0.250  0.750  0.000  0.000  0.000
  0.000  0.000  0.167  0.500  0.333
    occupations:
  0.370  0.000  0.000  0.000  0.001
  0.000  0.996  0.000  0.001  0.000
  0.000  0.000  0.996 -0.001  0.000
  0.000  0.001 -0.001  0.370  0.000
  0.001  0.000  0.000  0.000  0.996
atomic mag. moment =     1.233727
atom    3   Tr[ns(na)] (up, down, total) =   4.96210  3.72838  8.69048
   spin  1
    eigenvalues: 
  0.985  0.985  0.997  0.997  0.997
    eigenvectors:
  0.250  0.750  0.000  0.000  0.000
  0.000  0.000  0.500  0.170  0.330
  0.000  0.000  0.000  0.660  0.339
  0.750  0.250  0.000  0.000  0.000
  0.000  0.000  0.500  0.170  0.330
    occupations:
  0.985  0.000  0.000  0.000  0.000
  0.000  0.997  0.000  0.000  0.000
  0.000  0.000  0.997  0.000  0.000
  0.000  0.000  0.000  0.985  0.000
  0.000  0.000  0.000  0.000  0.997
   spin  2
    eigenvalues: 
  0.370  0.370  0.996  0.996  0.996
    eigenvectors:
  0.750  0.250  0.000  0.000  0.000
  0.000  0.000  0.167  0.500  0.333
  0.000  0.000  0.667  0.000  0.333
  0.250  0.750  0.000  0.000  0.000
  0.000  0.000  0.167  0.500  0.333
    occupations:
  0.370  0.000  0.000  0.000  0.001
  0.000  0.996  0.000  0.001  0.000
  0.000  0.000  0.996 -0.001  0.000
  0.000  0.001 -0.001  0.370  0.000
  0.001  0.000  0.000  0.000  0.996
atomic mag. moment =     1.233727
atom    4   Tr[ns(na)] (up, down, total) =   4.96210  3.72838  8.69048
   spin  1
    eigenvalues: 
  0.985  0.985  0.997  0.997  0.997
    eigenvectors:
  0.160  0.840  0.000  0.000  0.000
  0.000  0.000  0.526  0.140  0.333
  0.000  0.000  0.001  0.665  0.333
  0.840  0.160  0.000  0.000  0.000
  0.000  0.000  0.472  0.195  0.333
    occupations:
  0.985  0.000  0.000  0.000  0.000
  0.000  0.997  0.000  0.000  0.000
  0.000  0.000  0.997  0.000  0.000
  0.000  0.000  0.000  0.985  0.000
  0.000  0.000  0.000  0.000  0.997
   spin  2
    eigenvalues: 
  0.370  0.370  0.996  0.996  0.996
    eigenvectors:
  0.203  0.797  0.000  0.000  0.000
  0.000  0.000  0.144  0.522  0.333
  0.000  0.000  0.190  0.477  0.333
  0.797  0.203  0.000  0.000  0.000
  0.000  0.000  0.666  0.001  0.333
    occupations:
  0.370  0.000  0.000  0.000  0.001
  0.000  0.996  0.000  0.001  0.000
  0.000  0.000  0.996 -0.001  0.000
  0.000  0.001 -0.001  0.370  0.000
  0.001  0.000  0.000  0.000  0.996
atomic mag. moment =     1.233726
atom    5   Tr[ns(na)] (up, down, total) =   3.72838  4.96211  8.69049
   spin  1
    eigenvalues: 
  0.370  0.370  0.996  0.996  0.996
    eigenvectors:
  0.140  0.860  0.000  0.000  0.000
  0.000  0.000  0.119  0.548  0.333
  0.000  0.000  0.220  0.447  0.333
  0.860  0.140  0.000  0.000  0.000
  0.000  0.000  0.662  0.005  0.333
    occupations:
  0.370  0.000  0.000  0.000  0.001
  0.000  0.996  0.000  0.001  0.000
  0.000  0.000  0.996 -0.001  0.000
  0.000  0.001 -0.001  0.370  0.000
  0.001  0.000  0.000  0.000  0.996
   spin  2
    eigenvalues: 
  0.985  0.985  0.997  0.997  0.997
    eigenvectors:
  0.323  0.677  0.000  0.000  0.000
  0.000  0.000  0.060  0.606  0.333
  0.000  0.000  0.304  0.363  0.333
  0.677  0.323  0.000  0.000  0.000
  0.000  0.000  0.635  0.031  0.333
    occupations:
  0.985  0.000  0.000  0.000  0.000
  0.000  0.997  0.000  0.000  0.000
  0.000  0.000  0.997  0.000  0.000
  0.000  0.000  0.000  0.985  0.000
  0.000  0.000  0.000  0.000  0.997
atomic mag. moment =    -1.233725
atom    6   Tr[ns(na)] (up, down, total) =   3.72838  4.96211  8.69049
   spin  1
    eigenvalues: 
  0.370  0.370  0.996  0.996  0.996
    eigenvectors:
  0.750  0.250  0.000  0.000  0.000
  0.000  0.000  0.500  0.167  0.333
  0.000  0.000  0.000  0.667  0.333
  0.250  0.750  0.000  0.000  0.000
  0.000  0.000  0.500  0.167  0.333
    occupations:
  0.370  0.000  0.000  0.000  0.001
  0.000  0.996  0.000  0.001  0.000
  0.000  0.000  0.996 -0.001  0.000
  0.000  0.001 -0.001  0.370  0.000
  0.001  0.000  0.000  0.000  0.996
   spin  2
    eigenvalues: 
  0.985  0.985  0.997  0.997  0.997
    eigenvectors:
  0.250  0.750  0.000  0.000  0.000
  0.000  0.000  0.500  0.166  0.334
  0.000  0.000  0.000  0.668  0.332
  0.750  0.250  0.000  0.000  0.000
  0.000  0.000  0.500  0.166  0.334
    occupations:
  0.985  0.000  0.000  0.000  0.000
  0.000  0.997  0.000  0.000  0.000
  0.000  0.000  0.997  0.000  0.000
  0.000  0.000  0.000  0.985  0.000
  0.000  0.000  0.000  0.000  0.997
atomic mag. moment =    -1.233723
atom    7   Tr[ns(na)] (up, down, total) =   3.72838  4.96211  8.69049
   spin  1
    eigenvalues: 
  0.370  0.370  0.996  0.996  0.996
    eigenvectors:
  0.750  0.250  0.000  0.000  0.000
  0.000  0.000  0.000  0.667  0.333
  0.000  0.000  0.500  0.167  0.333
  0.250  0.750  0.000  0.000  0.000
  0.000  0.000  0.500  0.167  0.333
    occupations:
  0.370  0.000  0.000  0.000  0.001
  0.000  0.996  0.000  0.001  0.000
  0.000  0.000  0.996 -0.001  0.000
  0.000  0.001 -0.001  0.370  0.000
  0.001  0.000  0.000  0.000  0.996
   spin  2
    eigenvalues: 
  0.985  0.985  0.997  0.997  0.997
    eigenvectors:
  0.250  0.750  0.000  0.000  0.000
  0.000  0.000  0.000  0.668  0.332
  0.000  0.000  0.500  0.166  0.334
  0.750  0.250  0.000  0.000  0.000
  0.000  0.000  0.500  0.166  0.334
    occupations:
  0.985  0.000  0.000  0.000  0.000
  0.000  0.997  0.000  0.000  0.000
  0.000  0.000  0.997  0.000  0.000
  0.000  0.000  0.000  0.985  0.000
  0.000  0.000  0.000  0.000  0.997
atomic mag. moment =    -1.233723
atom    8   Tr[ns(na)] (up, down, total) =   3.72838  4.96211  8.69049
   spin  1
    eigenvalues: 
  0.370  0.370  0.996  0.996  0.996
    eigenvectors:
  0.000  1.000  0.000  0.000  0.000
  0.000  0.000  0.500  0.167  0.333
  0.000  0.000  0.500  0.167  0.333
  1.000  0.000  0.000  0.000  0.000
  0.000  0.000  0.000  0.667  0.333
    occupations:
  0.370  0.000  0.000  0.000  0.001
  0.000  0.996  0.000  0.001  0.000
  0.000  0.000  0.996 -0.001  0.000
  0.000  0.001 -0.001  0.370  0.000
  0.001  0.000  0.000  0.000  0.996
   spin  2
    eigenvalues: 
  0.985  0.985  0.997  0.997  0.997
    eigenvectors:
  1.000  0.000  0.000  0.000  0.000
  0.000  0.000  0.500  0.166  0.334
  0.000  0.000  0.500  0.166  0.334
  0.000  1.000  0.000  0.000  0.000
  0.000  0.000  0.000  0.668  0.332
    occupations:
  0.985  0.000  0.000  0.000  0.000
  0.000  0.997  0.000  0.000  0.000
  0.000  0.000  0.997  0.000  0.000
  0.000  0.000  0.000  0.985  0.000
  0.000  0.000  0.000  0.000  0.997
atomic mag. moment =    -1.233723
atom    9   Tr[ns(na)] (up, down, total) =   2.81403  2.81403  5.62805
   spin  1
    eigenvalues: 
  0.938  0.938  0.938
    eigenvectors:
  0.397  0.270  0.333
  0.585  0.081  0.333
  0.018  0.648  0.333
    occupations:
  0.938  0.000  0.000
  0.000  0.938  0.000
  0.000  0.000  0.938
   spin  2
    eigenvalues: 
  0.938  0.938  0.938
    eigenvectors:
  0.394  0.273  0.333
  0.587  0.080  0.333
  0.019  0.647  0.333
    occupations:
  0.938  0.000  0.000
  0.000  0.938  0.000
  0.000  0.000  0.938
atomic mag. moment =    -0.000001
atom   10   Tr[ns(na)] (up, down, total) =   2.81402  2.81403  5.62805
   spin  1
    eigenvalues: 
  0.938  0.938  0.938
    eigenvectors:
  0.000  0.666  0.334
  0.500  0.167  0.333
  0.500  0.167  0.333
    occupations:
  0.938  0.000  0.000
  0.000  0.938  0.000
  0.000  0.000  0.938
   spin  2
    eigenvalues: 
  0.938  0.938  0.938
    eigenvectors:
  0.000  0.667  0.333
  0.500  0.166  0.334
  0.500  0.166  0.334
    occupations:
  0.938  0.000  0.000
  0.000  0.938  0.000
  0.000  0.000  0.938
atomic mag. moment =    -0.000001
atom   11   Tr[ns(na)] (up, down, total) =   2.81402  2.81403  5.62805
   spin  1
    eigenvalues: 
  0.938  0.938  0.938
    eigenvectors:
  0.500  0.167  0.333
  0.000  0.666  0.334
  0.500  0.167  0.333
    occupations:
  0.938  0.000  0.000
  0.000  0.938  0.000
  0.000  0.000  0.938
   spin  2
    eigenvalues: 
  0.938  0.938  0.938
    eigenvectors:
  0.500  0.166  0.334
  0.000  0.667  0.333
  0.500  0.166  0.334
    occupations:
  0.938  0.000  0.000
  0.000  0.938  0.000
  0.000  0.000  0.938
atomic mag. moment =    -0.000001
atom   12   Tr[ns(na)] (up, down, total) =   2.81402  2.81403  5.62805
   spin  1
    eigenvalues: 
  0.938  0.938  0.938
    eigenvectors:
  0.500  0.167  0.333
  0.500  0.167  0.333
  0.000  0.666  0.334
    occupations:
  0.938  0.000  0.000
  0.000  0.938  0.000
  0.000  0.000  0.938
   spin  2
    eigenvalues: 
  0.938  0.938  0.938
    eigenvectors:
  0.500  0.166  0.334
  0.500  0.166  0.334
  0.000  0.667  0.333
    occupations:
  0.938  0.000  0.000
  0.000  0.938  0.000
  0.000  0.000  0.938
atomic mag. moment =    -0.000001
atom   13   Tr[ns(na)] (up, down, total) =   2.81402  2.81402  5.62805
   spin  1
    eigenvalues: 
  0.938  0.938  0.938
    eigenvectors:
  0.167  0.500  0.333
  0.666  0.000  0.334
  0.167  0.500  0.333
    occupations:
  0.938  0.000  0.000
  0.000  0.938  0.000
  0.000  0.000  0.938
   spin  2
    eigenvalues: 
  0.938  0.938  0.938
    eigenvectors:
  0.166  0.500  0.334
  0.667  0.000  0.333
  0.166  0.500  0.334
    occupations:
  0.938  0.000  0.000
  0.000  0.938  0.000
  0.000  0.000  0.938
atomic mag. moment =    -0.000001
atom   14   Tr[ns(na)] (up, down, total) =   2.81402  2.81402  5.62805
   spin  1
    eigenvalues: 
  0.938  0.938  0.938
    eigenvectors:
  0.167  0.500  0.333
  0.167  0.500  0.333
  0.666  0.000  0.334
    occupations:
  0.938  0.000  0.000
  0.000  0.938  0.000
  0.000  0.000  0.938
   spin  2
    eigenvalues: 
  0.938  0.938  0.938
    eigenvectors:
  0.166  0.500  0.334
  0.166  0.500  0.334
  0.667  0.000  0.333
    occupations:
  0.938  0.000  0.000
  0.000  0.938  0.000
  0.000  0.000  0.938
atomic mag. moment =    -0.000001
atom   15   Tr[ns(na)] (up, down, total) =   2.81402  2.81402  5.62805
   spin  1
    eigenvalues: 
  0.938  0.938  0.938
    eigenvectors:
  0.666  0.000  0.334
  0.167  0.500  0.333
  0.167  0.500  0.333
    occupations:
  0.938  0.000  0.000
  0.000  0.938  0.000
  0.000  0.000  0.938
   spin  2
    eigenvalues: 
  0.938  0.938  0.938
    eigenvectors:
  0.667  0.000  0.333
  0.166  0.500  0.334
  0.166  0.500  0.334
    occupations:
  0.938  0.000  0.000
  0.000  0.938  0.000
  0.000  0.000  0.938
atomic mag. moment =    -0.000001
atom   16   Tr[ns(na)] (up, down, total) =   2.81402  2.81402  5.62804
   spin  1
    eigenvalues: 
  0.938  0.938  0.938
    eigenvectors:
  0.394  0.272  0.333
  0.587  0.080  0.333
  0.019  0.648  0.333
    occupations:
  0.938  0.000  0.000
  0.000  0.938  0.000
  0.000  0.000  0.938
   spin  2
    eigenvalues: 
  0.938  0.938  0.938
    eigenvectors:
  0.384  0.283  0.333
  0.593  0.073  0.333
  0.023  0.644  0.333
    occupations:
  0.938  0.000  0.000
  0.000  0.938  0.000
  0.000  0.000  0.938
atomic mag. moment =    -0.000001
N of occupied +U levels = 114.5482719
 --- exit write_ns ---
 Atomic wfc used for LDA+U Projector are NOT orthogonalized
     Starting wfc from file

     total cpu time spent up to now is       14.5 secs

     per-process dynamical memory:    86.2 Mb

     Self-consistent Calculation

     iteration #  1     ecut=    30.00 Ry     beta=0.30
     Davidson diagonalization with overlap
     c_bands:  1 eigenvalues not converged
     ethr =  2.19E-11,  avg # of iterations = 17.2
 --- enter write_ns ---
 LDA+U parameters:
U( 1)     =  0.00000000
alpha( 1) =  0.00000000
U( 2)     =  0.00000000
alpha( 2) =  0.00000000
U( 3)     =  0.00000000
alpha( 3) =  0.07000000
U( 4)     =  0.00000000
alpha( 4) =  0.00000000
atom    1   Tr[ns(na)] (up, down, total) =   4.96212  3.72940  8.69152
   spin  1
    eigenvalues: 
  0.985  0.985  0.997  0.997  0.997
    eigenvectors:
  0.000  1.000  0.000  0.000  0.000
  0.000  0.000  0.279  0.500  0.221
  0.000  0.000  0.279  0.500  0.221
  1.000  0.000  0.000  0.000  0.000
  0.000  0.000  0.442  0.000  0.558
    occupations:
  0.985  0.000  0.000  0.000  0.000
  0.000  0.997  0.000  0.000  0.000
  0.000  0.000  0.997  0.000  0.000
  0.000  0.000  0.000  0.985  0.000
  0.000  0.000  0.000  0.000  0.997
   spin  2
    eigenvalues: 
  0.371  0.371  0.996  0.996  0.996
    eigenvectors:
  0.000  1.000  0.000  0.000  0.000
  0.000  0.000  0.500  0.177  0.323
  0.000  0.000  0.500  0.177  0.323
  1.000  0.000  0.000  0.000  0.000
  0.000  0.000  0.000  0.646  0.354
    occupations:
  0.371  0.000  0.000  0.000  0.001
  0.000  0.996  0.000  0.001  0.000
  0.000  0.000  0.996 -0.001  0.000
  0.000  0.001 -0.001  0.371  0.000
  0.001  0.000  0.000  0.000  0.996
atomic mag. moment =     1.232718
atom    2   Tr[ns(na)] (up, down, total) =   4.96212  3.72940  8.69152
   spin  1
    eigenvalues: 
  0.985  0.985  0.997  0.997  0.997
    eigenvectors:
  0.750  0.250  0.000  0.000  0.000
  0.000  0.000  0.442  0.000  0.558
  0.000  0.000  0.279  0.500  0.221
  0.250  0.750  0.000  0.000  0.000
  0.000  0.000  0.279  0.500  0.221
    occupations:
  0.985  0.000  0.000  0.000  0.000
  0.000  0.997  0.000  0.000  0.000
  0.000  0.000  0.997  0.000  0.000
  0.000  0.000  0.000  0.985  0.000
  0.000  0.000  0.000  0.000  0.997
   spin  2
    eigenvalues: 
  0.371  0.371  0.996  0.996  0.996
    eigenvectors:
  0.750  0.250  0.000  0.000  0.000
  0.000  0.000  0.000  0.646  0.354
  0.000  0.000  0.500  0.177  0.323
  0.250  0.750  0.000  0.000  0.000
  0.000  0.000  0.500  0.177  0.323
    occupations:
  0.371  0.000  0.000  0.000  0.001
  0.000  0.996  0.000  0.001  0.000
  0.000  0.000  0.996 -0.001  0.000
  0.000  0.001 -0.001  0.371  0.000
  0.001  0.000  0.000  0.000  0.996
atomic mag. moment =     1.232718
atom    3   Tr[ns(na)] (up, down, total) =   4.96212  3.72940  8.69152
   spin  1
    eigenvalues: 
  0.985  0.985  0.997  0.997  0.997
    eigenvectors:
  0.750  0.250  0.000  0.000  0.000
  0.000  0.000  0.279  0.500  0.221
  0.000  0.000  0.442  0.000  0.558
  0.250  0.750  0.000  0.000  0.000
  0.000  0.000  0.279  0.500  0.221
    occupations:
  0.985  0.000  0.000  0.000  0.000
  0.000  0.997  0.000  0.000  0.000
  0.000  0.000  0.997  0.000  0.000
  0.000  0.000  0.000  0.985  0.000
  0.000  0.000  0.000  0.000  0.997
   spin  2
    eigenvalues: 
  0.371  0.371  0.996  0.996  0.996
    eigenvectors:
  0.750  0.250  0.000  0.000  0.000
  0.000  0.000  0.500  0.177  0.323
  0.000  0.000  0.000  0.646  0.354
  0.250  0.750  0.000  0.000  0.000
  0.000  0.000  0.500  0.177  0.323
    occupations:
  0.371  0.000  0.000  0.000  0.001
  0.000  0.996  0.000  0.001  0.000
  0.000  0.000  0.996 -0.001  0.000
  0.000  0.001 -0.001  0.371  0.000
  0.001  0.000  0.000  0.000  0.996
atomic mag. moment =     1.232718
atom    4   Tr[ns(na)] (up, down, total) =   4.96211  3.72840  8.69051
   spin  1
    eigenvalues: 
  0.985  0.985  0.997  0.997  0.997
    eigenvectors:
  0.182  0.817  0.000  0.000  0.000
  0.000  0.000  0.333  0.120  0.546
  0.000  0.000  0.333  0.218  0.449
  0.817  0.182  0.000  0.000  0.000
  0.000  0.000  0.333  0.662  0.005
    occupations:
  0.985  0.000  0.000  0.000  0.000
  0.000  0.997  0.000  0.000  0.000
  0.000  0.000  0.997  0.000  0.000
  0.000  0.000  0.000  0.985  0.000
  0.000  0.000  0.000  0.000  0.997
   spin  2
    eigenvalues: 
  0.370  0.370  0.996  0.996  0.996
    eigenvectors:
  0.585  0.415  0.000  0.000  0.000
  0.000  0.000  0.167  0.500  0.333
  0.000  0.000  0.167  0.500  0.333
  0.415  0.585  0.000  0.000  0.000
  0.000  0.000  0.667  0.000  0.333
    occupations:
  0.370  0.000  0.000  0.000  0.001
  0.000  0.996  0.000  0.001  0.000
  0.000  0.000  0.996 -0.001  0.000
  0.000  0.001 -0.001  0.370  0.000
  0.001  0.000  0.000  0.000  0.996
atomic mag. moment =     1.233713
atom    5   Tr[ns(na)] (up, down, total) =   3.72839  4.96211  8.69049
   spin  1
    eigenvalues: 
  0.370  0.370  0.996  0.996  0.996
    eigenvectors:
  0.202  0.798  0.000  0.000  0.000
  0.000  0.000  0.082  0.584  0.333
  0.000  0.000  0.269  0.398  0.333
  0.798  0.202  0.000  0.000  0.000
  0.000  0.000  0.649  0.018  0.333
    occupations:
  0.370  0.000  0.000  0.000  0.001
  0.000  0.996  0.000  0.001  0.000
  0.000  0.000  0.996 -0.001  0.000
  0.000  0.001 -0.001  0.370  0.000
  0.001  0.000  0.000  0.000  0.996
   spin  2
    eigenvalues: 
  0.985  0.985  0.997  0.997  0.997
    eigenvectors:
  0.112  0.888  0.000  0.000  0.000
  0.000  0.000  0.333  0.208  0.458
  0.000  0.000  0.333  0.128  0.538
  0.888  0.112  0.000  0.000  0.000
  0.000  0.000  0.333  0.663  0.003
    occupations:
  0.985  0.000  0.000  0.000  0.000
  0.000  0.997  0.000  0.000  0.000
  0.000  0.000  0.997  0.000  0.000
  0.000  0.000  0.000  0.985  0.000
  0.000  0.000  0.000  0.000  0.997
atomic mag. moment =    -1.233723
atom    6   Tr[ns(na)] (up, down, total) =   3.72937  4.96211  8.69149
   spin  1
    eigenvalues: 
  0.371  0.371  0.996  0.996  0.996
    eigenvectors:
  0.750  0.250  0.000  0.000  0.000
  0.000  0.000  0.500  0.177  0.323
  0.000  0.000  0.000  0.647  0.353
  0.250  0.750  0.000  0.000  0.000
  0.000  0.000  0.500  0.177  0.323
    occupations:
  0.371  0.000  0.000  0.000  0.001
  0.000  0.996  0.000  0.001  0.000
  0.000  0.000  0.996 -0.001  0.000
  0.000  0.001 -0.001  0.371  0.000
  0.001  0.000  0.000  0.000  0.996
   spin  2
    eigenvalues: 
  0.985  0.985  0.997  0.997  0.997
    eigenvectors:
  0.750  0.250  0.000  0.000  0.000
  0.000  0.000  0.299  0.500  0.201
  0.000  0.000  0.401  0.000  0.599
  0.250  0.750  0.000  0.000  0.000
  0.000  0.000  0.299  0.500  0.201
    occupations:
  0.985  0.000  0.000  0.000  0.000
  0.000  0.997  0.000  0.000  0.000
  0.000  0.000  0.997  0.000  0.000
  0.000  0.000  0.000  0.985  0.000
  0.000  0.000  0.000  0.000  0.997
atomic mag. moment =    -1.232739
atom    7   Tr[ns(na)] (up, down, total) =   3.72937  4.96211  8.69149
   spin  1
    eigenvalues: 
  0.371  0.371  0.996  0.996  0.996
    eigenvectors:
  0.750  0.250  0.000  0.000  0.000
  0.000  0.000  0.000  0.647  0.353
  0.000  0.000  0.500  0.177  0.323
  0.250  0.750  0.000  0.000  0.000
  0.000  0.000  0.500  0.177  0.323
    occupations:
  0.371  0.000  0.000  0.000  0.001
  0.000  0.996  0.000  0.001  0.000
  0.000  0.000  0.996 -0.001  0.000
  0.000  0.001 -0.001  0.371  0.000
  0.001  0.000  0.000  0.000  0.996
   spin  2
    eigenvalues: 
  0.985  0.985  0.997  0.997  0.997
    eigenvectors:
  0.750  0.250  0.000  0.000  0.000
  0.000  0.000  0.401  0.000  0.599
  0.000  0.000  0.299  0.500  0.201
  0.250  0.750  0.000  0.000  0.000
  0.000  0.000  0.299  0.500  0.201
    occupations:
  0.985  0.000  0.000  0.000  0.000
  0.000  0.997  0.000  0.000  0.000
  0.000  0.000  0.997  0.000  0.000
  0.000  0.000  0.000  0.985  0.000
  0.000  0.000  0.000  0.000  0.997
atomic mag. moment =    -1.232739
atom    8   Tr[ns(na)] (up, down, total) =   3.72937  4.96211  8.69149
   spin  1
    eigenvalues: 
  0.371  0.371  0.996  0.996  0.996
    eigenvectors:
  0.000  1.000  0.000  0.000  0.000
  0.000  0.000  0.500  0.177  0.323
  0.000  0.000  0.500  0.177  0.323
  1.000  0.000  0.000  0.000  0.000
  0.000  0.000  0.000  0.647  0.353
    occupations:
  0.371  0.000  0.000  0.000  0.001
  0.000  0.996  0.000  0.001  0.000
  0.000  0.000  0.996 -0.001  0.000
  0.000  0.001 -0.001  0.371  0.000
  0.001  0.000  0.000  0.000  0.996
   spin  2
    eigenvalues: 
  0.985  0.985  0.997  0.997  0.997
    eigenvectors:
  0.000  1.000  0.000  0.000  0.000
  0.000  0.000  0.299  0.500  0.201
  0.000  0.000  0.299  0.500  0.201
  1.000  0.000  0.000  0.000  0.000
  0.000  0.000  0.401  0.000  0.599
    occupations:
  0.985  0.000  0.000  0.000  0.000
  0.000  0.997  0.000  0.000  0.000
  0.000  0.000  0.997  0.000  0.000
  0.000  0.000  0.000  0.985  0.000
  0.000  0.000  0.000  0.000  0.997
atomic mag. moment =    -1.232739
atom    9   Tr[ns(na)] (up, down, total) =   2.81091  2.81090  5.62181
   spin  1
    eigenvalues: 
  0.937  0.937  0.937
    eigenvectors:
  0.458  0.209  0.333
  0.539  0.128  0.333
  0.003  0.663  0.333
    occupations:
  0.937  0.000  0.000
  0.000  0.937  0.000
  0.000  0.000  0.937
   spin  2
    eigenvalues: 
  0.937  0.937  0.937
    eigenvectors:
  0.373  0.294  0.333
  0.600  0.066  0.333
  0.027  0.640  0.333
    occupations:
  0.937  0.000  0.000
  0.000  0.937  0.000
  0.000  0.000  0.937
atomic mag. moment =     0.000006
atom   10   Tr[ns(na)] (up, down, total) =   2.81404  2.81403  5.62807
   spin  1
    eigenvalues: 
  0.938  0.938  0.938
    eigenvectors:
  0.560  0.000  0.440
  0.220  0.500  0.280
  0.220  0.500  0.280
    occupations:
  0.938  0.000  0.000
  0.000  0.938  0.000
  0.000  0.000  0.938
   spin  2
    eigenvalues: 
  0.938  0.938  0.938
    eigenvectors:
  0.555  0.000  0.445
  0.223  0.500  0.277
  0.223  0.500  0.277
    occupations:
  0.938  0.000  0.000
  0.000  0.938  0.000
  0.000  0.000  0.938
atomic mag. moment =     0.000005
atom   11   Tr[ns(na)] (up, down, total) =   2.81404  2.81403  5.62807
   spin  1
    eigenvalues: 
  0.938  0.938  0.938
    eigenvectors:
  0.220  0.500  0.280
  0.560  0.000  0.440
  0.220  0.500  0.280
    occupations:
  0.938  0.000  0.000
  0.000  0.938  0.000
  0.000  0.000  0.938
   spin  2
    eigenvalues: 
  0.938  0.938  0.938
    eigenvectors:
  0.223  0.500  0.277
  0.555  0.000  0.445
  0.223  0.500  0.277
    occupations:
  0.938  0.000  0.000
  0.000  0.938  0.000
  0.000  0.000  0.938
atomic mag. moment =     0.000005
atom   12   Tr[ns(na)] (up, down, total) =   2.81404  2.81403  5.62807
   spin  1
    eigenvalues: 
  0.938  0.938  0.938
    eigenvectors:
  0.220  0.500  0.280
  0.220  0.500  0.280
  0.560  0.000  0.440
    occupations:
  0.938  0.000  0.000
  0.000  0.938  0.000
  0.000  0.000  0.938
   spin  2
    eigenvalues: 
  0.938  0.938  0.938
    eigenvectors:
  0.223  0.500  0.277
  0.223  0.500  0.277
  0.555  0.000  0.445
    occupations:
  0.938  0.000  0.000
  0.000  0.938  0.000
  0.000  0.000  0.938
atomic mag. moment =     0.000005
atom   13   Tr[ns(na)] (up, down, total) =   2.81403  2.81402  5.62805
   spin  1
    eigenvalues: 
  0.938  0.938  0.938
    eigenvectors:
  0.500  0.132  0.368
  0.000  0.736  0.264
  0.500  0.132  0.368
    occupations:
  0.938  0.000  0.000
  0.000  0.938  0.000
  0.000  0.000  0.938
   spin  2
    eigenvalues: 
  0.938  0.938  0.938
    eigenvectors:
  0.500  0.134  0.366
  0.000  0.733  0.267
  0.500  0.134  0.366
    occupations:
  0.938  0.000  0.000
  0.000  0.938  0.000
  0.000  0.000  0.938
atomic mag. moment =     0.000005
atom   14   Tr[ns(na)] (up, down, total) =   2.81403  2.81402  5.62805
   spin  1
    eigenvalues: 
  0.938  0.938  0.938
    eigenvectors:
  0.500  0.132  0.368
  0.500  0.132  0.368
  0.000  0.736  0.264
    occupations:
  0.938  0.000  0.000
  0.000  0.938  0.000
  0.000  0.000  0.938
   spin  2
    eigenvalues: 
  0.938  0.938  0.938
    eigenvectors:
  0.500  0.134  0.366
  0.500  0.134  0.366
  0.000  0.733  0.267
    occupations:
  0.938  0.000  0.000
  0.000  0.938  0.000
  0.000  0.000  0.938
atomic mag. moment =     0.000005
atom   15   Tr[ns(na)] (up, down, total) =   2.81403  2.81402  5.62805
   spin  1
    eigenvalues: 
  0.938  0.938  0.938
    eigenvectors:
  0.000  0.736  0.264
  0.500  0.132  0.368
  0.500  0.132  0.368
    occupations:
  0.938  0.000  0.000
  0.000  0.938  0.000
  0.000  0.000  0.938
   spin  2
    eigenvalues: 
  0.938  0.938  0.938
    eigenvectors:
  0.000  0.733  0.267
  0.500  0.134  0.366
  0.500  0.134  0.366
    occupations:
  0.938  0.000  0.000
  0.000  0.938  0.000
  0.000  0.000  0.938
atomic mag. moment =     0.000005
atom   16   Tr[ns(na)] (up, down, total) =   2.81435  2.81435  5.62870
   spin  1
    eigenvalues: 
  0.938  0.938  0.938
    eigenvectors:
  0.347  0.319  0.333
  0.615  0.052  0.333
  0.038  0.629  0.333
    occupations:
  0.938  0.000  0.000
  0.000  0.938  0.000
  0.000  0.000  0.938
   spin  2
    eigenvalues: 
  0.938  0.938  0.938
    eigenvectors:
  0.426  0.241  0.333
  0.564  0.102  0.333
  0.010  0.657  0.333
    occupations:
  0.938  0.000  0.000
  0.000  0.938  0.000
  0.000  0.000  0.938
atomic mag. moment =     0.000005
N of occupied +U levels = 114.5488843
 --- exit write_ns ---

     total cpu time spent up to now is       48.3 secs

     total energy              =    -941.96723557 Ry
     Harris-Foulkes estimate   =    -941.96725947 Ry
     estimated scf accuracy    <       0.00005264 Ry

     total magnetization       =     0.00 Bohr mag/cell
     absolute magnetization    =    12.65 Bohr mag/cell

     iteration #  2     ecut=    30.00 Ry     beta=0.30
     Davidson diagonalization with overlap
     ethr =  4.11E-08,  avg # of iterations =  2.0

     total cpu time spent up to now is       74.0 secs

     total energy              =    -941.96724786 Ry
     Harris-Foulkes estimate   =    -941.96725196 Ry
     estimated scf accuracy    <       0.00001238 Ry

     total magnetization       =     0.00 Bohr mag/cell
     absolute magnetization    =    12.66 Bohr mag/cell

     iteration #  3     ecut=    30.00 Ry     beta=0.30
     Davidson diagonalization with overlap
     ethr =  9.68E-09,  avg # of iterations =  2.0

     total cpu time spent up to now is       99.5 secs

     total energy              =    -941.96724973 Ry
     Harris-Foulkes estimate   =    -941.96724977 Ry
     estimated scf accuracy    <       0.00000019 Ry

     total magnetization       =     0.00 Bohr mag/cell
     absolute magnetization    =    12.66 Bohr mag/cell

     iteration #  4     ecut=    30.00 Ry     beta=0.30
     Davidson diagonalization with overlap
     ethr =  1.51E-10,  avg # of iterations =  2.0

     total cpu time spent up to now is      125.1 secs

     total energy              =    -941.96724974 Ry
     Harris-Foulkes estimate   =    -941.96724975 Ry
     estimated scf accuracy    <       0.00000007 Ry

     total magnetization       =     0.00 Bohr mag/cell
     absolute magnetization    =    12.66 Bohr mag/cell

     iteration #  5     ecut=    30.00 Ry     beta=0.30
     Davidson diagonalization with overlap
     ethr =  5.48E-11,  avg # of iterations =  2.0

     total cpu time spent up to now is      150.2 secs

     End of self-consistent calculation
 --- enter write_ns ---
 LDA+U parameters:
U( 1)     =  0.00000000
alpha( 1) =  0.00000000
U( 2)     =  0.00000000
alpha( 2) =  0.00000000
U( 3)     =  0.00000000
alpha( 3) =  0.07000000
U( 4)     =  0.00000000
alpha( 4) =  0.00000000
atom    1   Tr[ns(na)] (up, down, total) =   4.96211  3.72883  8.69094
   spin  1
    eigenvalues: 
  0.985  0.985  0.997  0.997  0.997
    eigenvectors:
  0.000  1.000  0.000  0.000  0.000
  0.000  0.000  0.008  0.500  0.492
  0.000  0.000  0.008  0.500  0.492
  1.000  0.000  0.000  0.000  0.000
  0.000  0.000  0.984  0.000  0.015
    occupations:
  0.985  0.000  0.000  0.000  0.000
  0.000  0.997  0.000  0.000  0.000
  0.000  0.000  0.997  0.000  0.000
  0.000  0.000  0.000  0.985  0.000
  0.000  0.000  0.000  0.000  0.997
   spin  2
    eigenvalues: 
  0.370  0.371  0.996  0.996  0.996
    eigenvectors:
  0.000  1.000  0.000  0.000  0.000
  0.000  0.000  0.165  0.500  0.335
  0.000  0.000  0.165  0.500  0.335
  1.000  0.000  0.000  0.000  0.000
  0.000  0.000  0.669  0.000  0.331
    occupations:
  0.371  0.000  0.000  0.000  0.001
  0.000  0.996  0.000  0.001  0.000
  0.000  0.000  0.996 -0.001  0.000
  0.000  0.001 -0.001  0.370  0.000
  0.001  0.000  0.000  0.000  0.996
atomic mag. moment =     1.233283
atom    2   Tr[ns(na)] (up, down, total) =   4.96211  3.72883  8.69094
   spin  1
    eigenvalues: 
  0.985  0.985  0.997  0.997  0.997
    eigenvectors:
  0.750  0.250  0.000  0.000  0.000
  0.000  0.000  0.984  0.000  0.015
  0.000  0.000  0.008  0.500  0.492
  0.250  0.750  0.000  0.000  0.000
  0.000  0.000  0.008  0.500  0.492
    occupations:
  0.985  0.000  0.000  0.000  0.000
  0.000  0.997  0.000  0.000  0.000
  0.000  0.000  0.997  0.000  0.000
  0.000  0.000  0.000  0.985  0.000
  0.000  0.000  0.000  0.000  0.997
   spin  2
    eigenvalues: 
  0.370  0.371  0.996  0.996  0.996
    eigenvectors:
  0.750  0.250  0.000  0.000  0.000
  0.000  0.000  0.669  0.000  0.331
  0.000  0.000  0.165  0.500  0.335
  0.250  0.750  0.000  0.000  0.000
  0.000  0.000  0.165  0.500  0.335
    occupations:
  0.371  0.000  0.000  0.000  0.001
  0.000  0.996  0.000  0.001  0.000
  0.000  0.000  0.996 -0.001  0.000
  0.000  0.001 -0.001  0.371  0.000
  0.001  0.000  0.000  0.000  0.996
atomic mag. moment =     1.233283
atom    3   Tr[ns(na)] (up, down, total) =   4.96211  3.72883  8.69094
   spin  1
    eigenvalues: 
  0.985  0.985  0.997  0.997  0.997
    eigenvectors:
  0.750  0.250  0.000  0.000  0.000
  0.000  0.000  0.008  0.500  0.492
  0.000  0.000  0.984  0.000  0.015
  0.250  0.750  0.000  0.000  0.000
  0.000  0.000  0.008  0.500  0.492
    occupations:
  0.985  0.000  0.000  0.000  0.000
  0.000  0.997  0.000  0.000  0.000
  0.000  0.000  0.997  0.000  0.000
  0.000  0.000  0.000  0.985  0.000
  0.000  0.000  0.000  0.000  0.997
   spin  2
    eigenvalues: 
  0.370  0.371  0.996  0.996  0.996
    eigenvectors:
  0.750  0.250  0.000  0.000  0.000
  0.000  0.000  0.165  0.500  0.335
  0.000  0.000  0.669  0.000  0.331
  0.250  0.750  0.000  0.000  0.000
  0.000  0.000  0.165  0.500  0.335
    occupations:
  0.371  0.000  0.000  0.000  0.001
  0.000  0.996  0.000  0.001  0.000
  0.000  0.000  0.996 -0.001  0.000
  0.000  0.001 -0.001  0.371  0.000
  0.001  0.000  0.000  0.000  0.996
atomic mag. moment =     1.233283
atom    4   Tr[ns(na)] (up, down, total) =   4.96211  3.72837  8.69048
   spin  1
    eigenvalues: 
  0.985  0.985  0.997  0.997  0.997
    eigenvectors:
  0.236  0.763  0.000  0.000  0.000
  0.000  0.000  0.096  0.570  0.333
  0.000  0.000  0.249  0.418  0.333
  0.763  0.236  0.000  0.000  0.000
  0.000  0.000  0.655  0.012  0.333
    occupations:
  0.985  0.000  0.000  0.000  0.000
  0.000  0.997  0.000  0.000  0.000
  0.000  0.000  0.997  0.000  0.000
  0.000  0.000  0.000  0.985  0.000
  0.000  0.000  0.000  0.000  0.997
   spin  2
    eigenvalues: 
  0.370  0.370  0.996  0.996  0.996
    eigenvectors:
  0.098  0.902  0.000  0.000  0.000
  0.000  0.000  0.056  0.611  0.333
  0.000  0.000  0.312  0.355  0.333
  0.902  0.098  0.000  0.000  0.000
  0.000  0.000  0.632  0.035  0.333
    occupations:
  0.370  0.000  0.000  0.000  0.001
  0.000  0.996  0.000  0.001  0.000
  0.000  0.000  0.996 -0.001  0.000
  0.000  0.001 -0.001  0.370  0.000
  0.001  0.000  0.000  0.000  0.996
atomic mag. moment =     1.233740
atom    5   Tr[ns(na)] (up, down, total) =   3.72837  4.96211  8.69048
   spin  1
    eigenvalues: 
  0.370  0.370  0.996  0.996  0.996
    eigenvectors:
  0.285  0.715  0.000  0.000  0.000
  0.000  0.000  0.132  0.535  0.333
  0.000  0.000  0.204  0.463  0.333
  0.715  0.285  0.000  0.000  0.000
  0.000  0.000  0.664  0.003  0.333
    occupations:
  0.370  0.000  0.000  0.000  0.001
  0.000  0.996  0.000  0.001  0.000
  0.000  0.000  0.996 -0.001  0.000
  0.000  0.001 -0.001  0.370  0.000
  0.001  0.000  0.000  0.000  0.996
   spin  2
    eigenvalues: 
  0.985  0.985  0.997  0.997  0.997
    eigenvectors:
  0.248  0.752  0.000  0.000  0.000
  0.000  0.000  0.142  0.524  0.333
  0.000  0.000  0.192  0.474  0.333
  0.752  0.248  0.000  0.000  0.000
  0.000  0.000  0.665  0.001  0.333
    occupations:
  0.985  0.000  0.000  0.000  0.000
  0.000  0.997  0.000  0.000  0.000
  0.000  0.000  0.997  0.000  0.000
  0.000  0.000  0.000  0.985  0.000
  0.000  0.000  0.000  0.000  0.997
atomic mag. moment =    -1.233739
atom    6   Tr[ns(na)] (up, down, total) =   3.72882  4.96211  8.69093
   spin  1
    eigenvalues: 
  0.370  0.371  0.996  0.996  0.996
    eigenvectors:
  0.750  0.250  0.000  0.000  0.000
  0.000  0.000  0.165  0.500  0.335
  0.000  0.000  0.670  0.000  0.330
  0.250  0.750  0.000  0.000  0.000
  0.000  0.000  0.165  0.500  0.335
    occupations:
  0.371  0.000  0.000  0.000  0.001
  0.000  0.996  0.000  0.001  0.000
  0.000  0.000  0.996 -0.001  0.000
  0.000  0.001 -0.001  0.371  0.000
  0.001  0.000  0.000  0.000  0.996
   spin  2
    eigenvalues: 
  0.985  0.985  0.997  0.997  0.997
    eigenvectors:
  0.750  0.250  0.000  0.000  0.000
  0.000  0.000  0.008  0.500  0.492
  0.000  0.000  0.984  0.000  0.016
  0.250  0.750  0.000  0.000  0.000
  0.000  0.000  0.008  0.500  0.492
    occupations:
  0.985  0.000  0.000  0.000  0.000
  0.000  0.997  0.000  0.000  0.000
  0.000  0.000  0.997  0.000  0.000
  0.000  0.000  0.000  0.985  0.000
  0.000  0.000  0.000  0.000  0.997
atomic mag. moment =    -1.233291
atom    7   Tr[ns(na)] (up, down, total) =   3.72882  4.96211  8.69093
   spin  1
    eigenvalues: 
  0.370  0.371  0.996  0.996  0.996
    eigenvectors:
  0.750  0.250  0.000  0.000  0.000
  0.000  0.000  0.670  0.000  0.330
  0.000  0.000  0.165  0.500  0.335
  0.250  0.750  0.000  0.000  0.000
  0.000  0.000  0.165  0.500  0.335
    occupations:
  0.371  0.000  0.000  0.000  0.001
  0.000  0.996  0.000  0.001  0.000
  0.000  0.000  0.996 -0.001  0.000
  0.000  0.001 -0.001  0.371  0.000
  0.001  0.000  0.000  0.000  0.996
   spin  2
    eigenvalues: 
  0.985  0.985  0.997  0.997  0.997
    eigenvectors:
  0.750  0.250  0.000  0.000  0.000
  0.000  0.000  0.984  0.000  0.016
  0.000  0.000  0.008  0.500  0.492
  0.250  0.750  0.000  0.000  0.000
  0.000  0.000  0.008  0.500  0.492
    occupations:
  0.985  0.000  0.000  0.000  0.000
  0.000  0.997  0.000  0.000  0.000
  0.000  0.000  0.997  0.000  0.000
  0.000  0.000  0.000  0.985  0.000
  0.000  0.000  0.000  0.000  0.997
atomic mag. moment =    -1.233291
atom    8   Tr[ns(na)] (up, down, total) =   3.72882  4.96211  8.69093
   spin  1
    eigenvalues: 
  0.370  0.371  0.996  0.996  0.996
    eigenvectors:
  0.000  1.000  0.000  0.000  0.000
  0.000  0.000  0.165  0.500  0.335
  0.000  0.000  0.165  0.500  0.335
  1.000  0.000  0.000  0.000  0.000
  0.000  0.000  0.670  0.000  0.330
    occupations:
  0.371  0.000  0.000  0.000  0.001
  0.000  0.996  0.000  0.001  0.000
  0.000  0.000  0.996 -0.001  0.000
  0.000  0.001 -0.001  0.370  0.000
  0.001  0.000  0.000  0.000  0.996
   spin  2
    eigenvalues: 
  0.985  0.985  0.997  0.997  0.997
    eigenvectors:
  0.000  1.000  0.000  0.000  0.000
  0.000  0.000  0.008  0.500  0.492
  0.000  0.000  0.008  0.500  0.492
  1.000  0.000  0.000  0.000  0.000
  0.000  0.000  0.984  0.000  0.016
    occupations:
  0.985  0.000  0.000  0.000  0.000
  0.000  0.997  0.000  0.000  0.000
  0.000  0.000  0.997  0.000  0.000
  0.000  0.000  0.000  0.985  0.000
  0.000  0.000  0.000  0.000  0.997
atomic mag. moment =    -1.233291
atom    9   Tr[ns(na)] (up, down, total) =   2.81280  2.81280  5.62560
   spin  1
    eigenvalues: 
  0.938  0.938  0.938
    eigenvectors:
  0.443  0.224  0.333
  0.551  0.116  0.333
  0.006  0.661  0.333
    occupations:
  0.938  0.000  0.000
  0.000  0.938  0.000
  0.000  0.000  0.938
   spin  2
    eigenvalues: 
  0.938  0.938  0.938
    eigenvectors:
  0.460  0.207  0.333
  0.537  0.129  0.333
  0.003  0.664  0.333
    occupations:
  0.938  0.000  0.000
  0.000  0.938  0.000
  0.000  0.000  0.938
atomic mag. moment =     0.000002
atom   10   Tr[ns(na)] (up, down, total) =   2.81404  2.81404  5.62809
   spin  1
    eigenvalues: 
  0.938  0.938  0.938
    eigenvectors:
  0.649  0.000  0.351
  0.176  0.500  0.324
  0.176  0.500  0.324
    occupations:
  0.938  0.000  0.000
  0.000  0.938  0.000
  0.000  0.000  0.938
   spin  2
    eigenvalues: 
  0.938  0.938  0.938
    eigenvectors:
  0.646  0.000  0.354
  0.177  0.500  0.323
  0.177  0.500  0.323
    occupations:
  0.938  0.000  0.000
  0.000  0.938  0.000
  0.000  0.000  0.938
atomic mag. moment =     0.000001
atom   11   Tr[ns(na)] (up, down, total) =   2.81404  2.81404  5.62809
   spin  1
    eigenvalues: 
  0.938  0.938  0.938
    eigenvectors:
  0.176  0.500  0.324
  0.649  0.000  0.351
  0.176  0.500  0.324
    occupations:
  0.938  0.000  0.000
  0.000  0.938  0.000
  0.000  0.000  0.938
   spin  2
    eigenvalues: 
  0.938  0.938  0.938
    eigenvectors:
  0.177  0.500  0.323
  0.646  0.000  0.354
  0.177  0.500  0.323
    occupations:
  0.938  0.000  0.000
  0.000  0.938  0.000
  0.000  0.000  0.938
atomic mag. moment =     0.000001
atom   12   Tr[ns(na)] (up, down, total) =   2.81404  2.81404  5.62809
   spin  1
    eigenvalues: 
  0.938  0.938  0.938
    eigenvectors:
  0.176  0.500  0.324
  0.176  0.500  0.324
  0.649  0.000  0.351
    occupations:
  0.938  0.000  0.000
  0.000  0.938  0.000
  0.000  0.000  0.938
   spin  2
    eigenvalues: 
  0.938  0.938  0.938
    eigenvectors:
  0.177  0.500  0.323
  0.177  0.500  0.323
  0.646  0.000  0.354
    occupations:
  0.938  0.000  0.000
  0.000  0.938  0.000
  0.000  0.000  0.938
atomic mag. moment =     0.000001
atom   13   Tr[ns(na)] (up, down, total) =   2.81404  2.81404  5.62808
   spin  1
    eigenvalues: 
  0.938  0.938  0.938
    eigenvectors:
  0.500  0.139  0.361
  0.000  0.723  0.277
  0.500  0.139  0.361
    occupations:
  0.938  0.000  0.000
  0.000  0.938  0.000
  0.000  0.000  0.938
   spin  2
    eigenvalues: 
  0.938  0.938  0.938
    eigenvectors:
  0.500  0.140  0.360
  0.000  0.720  0.280
  0.500  0.140  0.360
    occupations:
  0.938  0.000  0.000
  0.000  0.938  0.000
  0.000  0.000  0.938
atomic mag. moment =     0.000001
atom   14   Tr[ns(na)] (up, down, total) =   2.81404  2.81404  5.62808
   spin  1
    eigenvalues: 
  0.938  0.938  0.938
    eigenvectors:
  0.500  0.139  0.361
  0.500  0.139  0.361
  0.000  0.723  0.277
    occupations:
  0.938  0.000  0.000
  0.000  0.938  0.000
  0.000  0.000  0.938
   spin  2
    eigenvalues: 
  0.938  0.938  0.938
    eigenvectors:
  0.500  0.140  0.360
  0.500  0.140  0.360
  0.000  0.720  0.280
    occupations:
  0.938  0.000  0.000
  0.000  0.938  0.000
  0.000  0.000  0.938
atomic mag. moment =     0.000001
atom   15   Tr[ns(na)] (up, down, total) =   2.81404  2.81404  5.62808
   spin  1
    eigenvalues: 
  0.938  0.938  0.938
    eigenvectors:
  0.000  0.723  0.277
  0.500  0.139  0.361
  0.500  0.139  0.361
    occupations:
  0.938  0.000  0.000
  0.000  0.938  0.000
  0.000  0.000  0.938
   spin  2
    eigenvalues: 
  0.938  0.938  0.938
    eigenvectors:
  0.000  0.720  0.280
  0.500  0.140  0.360
  0.500  0.140  0.360
    occupations:
  0.938  0.000  0.000
  0.000  0.938  0.000
  0.000  0.000  0.938
atomic mag. moment =     0.000001
atom   16   Tr[ns(na)] (up, down, total) =   2.81402  2.81402  5.62804
   spin  1
    eigenvalues: 
  0.938  0.938  0.938
    eigenvectors:
  0.446  0.221  0.333
  0.549  0.118  0.333
  0.005  0.661  0.333
    occupations:
  0.938  0.000  0.000
  0.000  0.938  0.000
  0.000  0.000  0.938
   spin  2
    eigenvalues: 
  0.938  0.938  0.938
    eigenvectors:
  0.409  0.257  0.333
  0.576  0.090  0.333
  0.014  0.652  0.333
    occupations:
  0.938  0.000  0.000
  0.000  0.938  0.000
  0.000  0.000  0.938
atomic mag. moment =     0.000002
N of occupied +U levels = 114.5487408
 --- exit write_ns ---

 ------ SPIN UP ------------


          k = 0.0000 0.0000 0.0000 (  2733 PWs)   bands (ev):

    -8.0427  -6.6563  -6.6425  -6.6424  -6.6424  -6.5815  -6.5745  -6.5745
     4.0466   4.0568   4.0568   4.0583   5.3632   5.3632   5.3632   6.5221
     6.5221   6.5309   6.5384   6.5384   6.5631   6.5631   6.5733   7.9931
     7.9940   7.9940   8.0043   8.0043   8.0052   8.7965   8.7965   8.7965
     9.3066   9.3066   9.3088   9.5115   9.5115   9.6541   9.8450   9.8450
     9.8925   9.8927   9.8927  10.1788  10.1788  10.1790  10.4502  10.4502
    10.4502  10.5592  10.5593  10.5593  10.8894  10.8894  11.0156  11.0156
    11.0164  11.1569  11.2416  11.2416  11.2420  11.3624  11.3629  11.3629
    13.5616  13.5616  13.6221  13.6222  13.6222  13.7075  13.7075  13.7079
    13.7708  17.8023  17.8043  17.8053  17.8053

          k = 0.2500-0.2500-0.2500 (  2764 PWs)   bands (ev):

    -7.4106  -7.4031  -6.6353  -6.6199  -6.6175  -6.6151  -6.6121  -6.6111
     5.0715   5.0764   5.0834   5.0904   5.1048   5.1078   6.1147   6.1254
     6.3296   6.3379   6.3963   6.4049   6.4733   6.4841   6.8463   6.8539
     7.0259   7.0322   7.3395   7.3435   7.4985   7.5039   7.6624   7.6710
     9.5883   9.5887   9.7802   9.7803   9.8517   9.8524   9.9810   9.9811
    10.1205  10.1213  10.1711  10.1713  10.4907  10.4919  10.6100  10.6112
    10.6405  10.6412  10.8380  10.8388  10.9382  10.9391  11.2201  11.2210
    11.2327  11.2338  11.2771  11.2781  11.3078  11.3085  11.4189  11.4206
    13.0594  13.0599  13.0637  13.0640  13.0711  13.0712  13.0837  13.0839
    16.4997  16.5012  19.6614  19.6614  19.7218

          k = 0.0000 0.0000-0.5000 (  2762 PWs)   bands (ev):

    -7.2730  -7.2662  -6.7824  -6.7705  -6.7701  -6.7700  -6.4718  -6.4661
     5.0319   5.0423   5.0443   5.0556   5.7864   5.7970   6.1226   6.1261
     6.1346   6.1384   6.4168   6.4262   6.6474   6.6558   6.6814   6.6899
     6.7404   6.7434   6.7472   6.7653   8.1742   8.1828   8.1842   8.1928
     9.2097   9.2101   9.8961   9.8967   9.9779   9.9783  10.0011  10.0011
    10.0160  10.0178  10.1290  10.1292  10.3176  10.3178  10.4495  10.4503
    10.4815  10.4831  10.5542  10.5544  10.8909  10.8910  10.9770  10.9778
    11.1300  11.1304  11.2130  11.2139  11.3122  11.3129  11.3276  11.3280
    12.4747  12.4750  12.7325  12.7327  13.5330  13.5337  13.6348  13.6353
    17.6870  17.6871  19.2690  19.2694  19.2707

          k =-0.2500-0.2500-0.2500 (  2764 PWs)   bands (ev):

    -7.4128  -7.4011  -6.6392  -6.6261  -6.6261  -6.6097  -6.6049  -6.6049
     5.0293   5.0388   5.0388   5.1350   5.1467   5.1467   6.1012   6.1428
     6.2614   6.2614   6.2766   6.7146   6.7146   6.7314   6.7429   6.7488
     6.7488   6.9660   6.9660   7.4794   7.4867   7.4867   7.8991   7.8991
     9.4430   9.4431   9.4431   9.6232   9.6232  10.0668  10.0668  10.0670
    10.0826  10.4322  10.4322  10.4325  10.4645  10.4647  10.4647  10.7057
    10.7057  10.8031  10.8031  10.8055  10.8539  11.0320  11.0336  11.0336
    11.2217  11.2217  11.2221  11.2911  11.2911  11.3809  11.3814  11.3814
    13.0591  13.0591  13.0592  13.0791  13.0791  13.0890  13.0891  13.0891
    16.4236  16.5803  19.6397  19.6398  19.6398

 ------ SPIN DOWN ----------


          k = 0.0000 0.0000 0.0000 (  2733 PWs)   bands (ev):

    -8.0427  -6.6563  -6.6425  -6.6424  -6.6424  -6.5815  -6.5745  -6.5745
     4.0466   4.0568   4.0568   4.0583   5.3632   5.3632   5.3632   6.5221
     6.5221   6.5309   6.5384   6.5384   6.5631   6.5631   6.5733   7.9931
     7.9940   7.9940   8.0043   8.0043   8.0052   8.7965   8.7965   8.7965
     9.3066   9.3066   9.3088   9.5115   9.5115   9.6541   9.8450   9.8450
     9.8925   9.8927   9.8927  10.1788  10.1788  10.1790  10.4502  10.4503
    10.4503  10.5592  10.5593  10.5593  10.8893  10.8893  11.0156  11.0156
    11.0164  11.1569  11.2416  11.2416  11.2419  11.3624  11.3628  11.3628
    13.5616  13.5616  13.6221  13.6222  13.6222  13.7074  13.7074  13.7079
    13.7708  17.8023  17.8043  17.8053  17.8053

          k = 0.2500-0.2500-0.2500 (  2764 PWs)   bands (ev):

    -7.4106  -7.4031  -6.6353  -6.6199  -6.6175  -6.6151  -6.6121  -6.6111
     5.0715   5.0764   5.0834   5.0904   5.1048   5.1078   6.1147   6.1254
     6.3296   6.3379   6.3963   6.4050   6.4733   6.4841   6.8463   6.8540
     7.0259   7.0322   7.3395   7.3435   7.4985   7.5039   7.6624   7.6710
     9.5884   9.5887   9.7803   9.7803   9.8517   9.8524   9.9810   9.9812
    10.1206  10.1213  10.1711  10.1713  10.4907  10.4919  10.6099  10.6113
    10.6404  10.6412  10.8381  10.8388  10.9382  10.9391  11.2200  11.2210
    11.2327  11.2337  11.2771  11.2781  11.3078  11.3085  11.4189  11.4206
    13.0594  13.0599  13.0637  13.0640  13.0710  13.0711  13.0837  13.0839
    16.4997  16.5012  19.6614  19.6614  19.7218

          k = 0.0000 0.0000-0.5000 (  2762 PWs)   bands (ev):

    -7.2730  -7.2662  -6.7824  -6.7705  -6.7701  -6.7700  -6.4718  -6.4661
     5.0319   5.0423   5.0443   5.0556   5.7864   5.7970   6.1226   6.1261
     6.1346   6.1384   6.4168   6.4262   6.6474   6.6559   6.6814   6.6899
     6.7404   6.7434   6.7472   6.7653   8.1742   8.1828   8.1842   8.1928
     9.2097   9.2102   9.8961   9.8967   9.9780   9.9783  10.0012  10.0012
    10.0160  10.0178  10.1291  10.1293  10.3176  10.3178  10.4495  10.4504
    10.4815  10.4832  10.5542  10.5544  10.8909  10.8910  10.9770  10.9778
    11.1300  11.1303  11.2130  11.2139  11.3122  11.3129  11.3275  11.3280
    12.4746  12.4750  12.7325  12.7326  13.5330  13.5337  13.6348  13.6353
    17.6870  17.6871  19.2690  19.2694  19.2707

          k =-0.2500-0.2500-0.2500 (  2764 PWs)   bands (ev):

    -7.4128  -7.4011  -6.6392  -6.6261  -6.6261  -6.6097  -6.6049  -6.6049
     5.0293   5.0388   5.0388   5.1350   5.1467   5.1467   6.1012   6.1428
     6.2614   6.2614   6.2766   6.7146   6.7146   6.7314   6.7429   6.7488
     6.7488   6.9660   6.9660   7.4794   7.4867   7.4867   7.8991   7.8991
     9.4430   9.4431   9.4431   9.6233   9.6233  10.0669  10.0669  10.0671
    10.0826  10.4322  10.4322  10.4325  10.4646  10.4648  10.4648  10.7056
    10.7056  10.8031  10.8031  10.8056  10.8538  11.0320  11.0336  11.0336
    11.2216  11.2216  11.2220  11.2911  11.2911  11.3809  11.3814  11.3814
    13.0590  13.0590  13.0591  13.0791  13.0791  13.0890  13.0891  13.0891
    16.4236  16.5802  19.6397  19.6398  19.6398

     the Fermi energy is    11.9478 ev

!    total energy              =    -941.96724975 Ry
     Harris-Foulkes estimate   =    -941.96724975 Ry
     estimated scf accuracy    <          8.1E-09 Ry

     The total energy is the sum of the following terms:

     one-electron contribution =     -56.24580606 Ry
     hartree contribution      =     175.69417843 Ry
     xc contribution           =    -297.58715948 Ry
     ewald contribution        =    -763.85740583 Ry
     Hubbard energy            =       0.02894320 Ry
     smearing contrib. (-TS)   =       0.00000000 Ry

     total magnetization       =     0.00 Bohr mag/cell
     absolute magnetization    =    12.66 Bohr mag/cell

     convergence has been achieved in   5 iterations

     Writing output data file nio.save
 
     init_run     :     13.28s CPU     14.32s WALL (       1 calls)
     electrons    :    128.81s CPU    135.79s WALL (       1 calls)

     Called by init_run:
     wfcinit      :      0.20s CPU      0.21s WALL (       1 calls)
     potinit      :      1.16s CPU      1.36s WALL (       1 calls)

     Called by electrons:
     c_bands      :     25.69s CPU     27.07s WALL (       5 calls)
     sum_band     :     51.12s CPU     52.03s WALL (       5 calls)
     v_of_rho     :      5.84s CPU      6.50s WALL (       6 calls)
     newd         :     54.33s CPU     58.94s WALL (       6 calls)
     mix_rho      :      0.72s CPU      0.80s WALL (       5 calls)

     Called by c_bands:
     init_us_2    :      0.24s CPU      0.26s WALL (      22 calls)
     cegterg      :     24.65s CPU     25.86s WALL (      10 calls)

     Called by *egterg:
     h_psi        :     17.18s CPU     17.86s WALL (      59 calls)
     s_psi        :      1.55s CPU      1.56s WALL (      61 calls)
     g_psi        :      0.10s CPU      0.08s WALL (      49 calls)
     cdiaghg      :      1.61s CPU      1.63s WALL (      57 calls)

     Called by h_psi:
     add_vuspsi   :      1.47s CPU      1.47s WALL (      59 calls)

     General routines
     calbec       :      2.57s CPU      2.54s WALL (     140 calls)
     fft          :      4.63s CPU      5.17s WALL (     174 calls)
     ffts         :      0.06s CPU      0.07s WALL (      22 calls)
     fftw         :      8.53s CPU      9.48s WALL (    5022 calls)
     interpolate  :      0.76s CPU      1.00s WALL (      22 calls)
     davcio       :      0.00s CPU      0.32s WALL (      64 calls)
 
     Parallel routines
     fft_scatter  :      2.29s CPU      2.72s WALL (    5218 calls)
     EXX routines
 
     PWSCF        :  2m22.42s CPU     2m30.56s WALL

 
   This run was terminated on:  12:25: 7  17Jun2012            

=------------------------------------------------------------------------------=
   JOB DONE.
=------------------------------------------------------------------------------=
