
     Program PWSCF v.5.0        starts on 17Jun2012 at 12:17: 9 

     This program is part of the open-source Quantum ESPRESSO suite
     for quantum simulation of materials; please cite
         "P. Giannozzi et al., J. Phys.:Condens. Matter 21 395502 (2009);
          URL http://www.quantum-espresso.org", 
     in publications or presentations arising from this work. More details at
     http://www.quantum-espresso.org/quote.php

     Parallel version (MPI), running on     4 processors
     K-points division:     npool     =    4

     Current dimensions of program PWSCF are:
     Max number of different atomic species (ntypx) = 10
     Max number of k-points (npk) =  40000
     Max angular momentum in pseudopotentials (lmaxx) =  3
     Waiting for input...
     Reading input from standard input
               file Ni.pbe-nd-rrkjus.UPF: wavefunction(s)  4S renormalized
               file Ni.pbe-nd-rrkjus.UPF: wavefunction(s)  4S renormalized
               file O.pbe-rrkjus.UPF: wavefunction(s)  2S renormalized
               file O.pbe-rrkjus.UPF: wavefunction(s)  2S renormalized

     Subspace diagonalization in iterative solution of the eigenvalue problem:
     a serial algorithm will be used

 
     G-vector sticks info
     --------------------
     sticks:   dense  smooth     PW     G-vecs:    dense   smooth      PW
     Sum        2587    1039    295                86547    22075    3287
 


     bravais-lattice index     =            0
     lattice parameter (alat)  =       7.9000  a.u.
     unit-cell volume          =     986.0780 (a.u.)^3
     number of atoms/cell      =           16
     number of atomic types    =            4
     number of electrons       =       128.00
     number of Kohn-Sham states=           77
     kinetic-energy cutoff     =      30.0000  Ry
     charge density cutoff     =     300.0000  Ry
     convergence threshold     =      1.0E-08
     mixing beta               =       0.3000
     number of iterations used =            8  plain     mixing
     Exchange-correlation      =  SLA  PW   PBE  PBE ( 1 4 3 4 0)
     EXX-fraction              =        0.00

     celldm(1)=   7.900000  celldm(2)=   0.000000  celldm(3)=   0.000000
     celldm(4)=   0.000000  celldm(5)=   0.000000  celldm(6)=   0.000000

     crystal axes: (cart. coord. in units of alat)
               a(1) = (   1.000000   1.000000   0.000000 )  
               a(2) = (   1.000000   0.000000   1.000000 )  
               a(3) = (   0.000000   1.000000   1.000000 )  

     reciprocal axes: (cart. coord. in units 2 pi/alat)
               b(1) = (  0.500000  0.500000 -0.500000 )  
               b(2) = (  0.500000 -0.500000  0.500000 )  
               b(3) = ( -0.500000  0.500000  0.500000 )  


     PseudoPot. # 1 for Ni read from file:
     ../pseudo/Ni.pbe-nd-rrkjus.UPF
     MD5 check sum: 8081f0a005c9a5470caab1a58e82ecb2
     Pseudo is Ultrasoft + core correction, Zval = 10.0
     Generated by new atomic code, or converted to UPF format
     Using radial grid of 1203 points,  6 beta functions with: 
                l(1) =   0
                l(2) =   0
                l(3) =   1
                l(4) =   1
                l(5) =   2
                l(6) =   2
     Q(r) pseudized with 0 coefficients 


     PseudoPot. # 2 for Ni read from file:
     ../pseudo/Ni.pbe-nd-rrkjus.UPF
     MD5 check sum: 8081f0a005c9a5470caab1a58e82ecb2
     Pseudo is Ultrasoft + core correction, Zval = 10.0
     Generated by new atomic code, or converted to UPF format
     Using radial grid of 1203 points,  6 beta functions with: 
                l(1) =   0
                l(2) =   0
                l(3) =   1
                l(4) =   1
                l(5) =   2
                l(6) =   2
     Q(r) pseudized with 0 coefficients 


     PseudoPot. # 3 for O  read from file:
     ../pseudo/O.pbe-rrkjus.UPF
     MD5 check sum: 390ba29e75625707450f3bd3f0eb6be9
     Pseudo is Ultrasoft, Zval =  6.0
     Generated by new atomic code, or converted to UPF format
     Using radial grid of 1269 points,  4 beta functions with: 
                l(1) =   0
                l(2) =   0
                l(3) =   1
                l(4) =   1
     Q(r) pseudized with 0 coefficients 


     PseudoPot. # 4 for O  read from file:
     ../pseudo/O.pbe-rrkjus.UPF
     MD5 check sum: 390ba29e75625707450f3bd3f0eb6be9
     Pseudo is Ultrasoft, Zval =  6.0
     Generated by new atomic code, or converted to UPF format
     Using radial grid of 1269 points,  4 beta functions with: 
                l(1) =   0
                l(2) =   0
                l(3) =   1
                l(4) =   1
     Q(r) pseudized with 0 coefficients 


     atomic species   valence    mass     pseudopotential
        Ni1           10.00     1.00000     Ni( 1.00)
        Ni2           10.00     1.00000     Ni( 1.00)
        O1             6.00     1.00000     O ( 1.00)
        O2             6.00     1.00000     O ( 1.00)

     Starting magnetic structure 
     atomic species   magnetization
        Ni1          0.500
        Ni2         -0.500
        O1           0.000
        O2           0.000
 -----
     simplified LDA+U calculation, Hubbard_lmax = 2
     atomic species  L   Hubbard U  Hubbard alpha
        Ni1          2    0.000000    0.000000
        Ni2          2    0.000000    0.000000
        O1           1    0.000000    0.150000
        O2           1    0.000000    0.000000
 -----

      6 Sym. Ops. (no inversion) found



   Cartesian axes

     site n.     atom                  positions (alat units)
         1           Ni1 tau(   1) = (   0.0000000   0.0000000  -0.5000000  )
         2           Ni1 tau(   2) = (   1.0000000   0.5000000   0.0000000  )
         3           Ni1 tau(   3) = (   0.5000000   1.0000000   0.0000000  )
         4           Ni1 tau(   4) = (   0.5000000   0.5000000   0.5000000  )
         5           Ni2 tau(   5) = (   0.5000000   0.5000000  -0.5000000  )
         6           Ni2 tau(   6) = (   0.5000000   0.0000000   0.0000000  )
         7           Ni2 tau(   7) = (   0.0000000   0.5000000   0.0000000  )
         8           Ni2 tau(   8) = (   1.0000000   1.0000000   0.5000000  )
         9           O1  tau(   9) = (   0.0000000   0.0000000   0.0000000  )
        10           O2  tau(  10) = (   0.5000000   0.5000000   0.0000000  )
        11           O2  tau(  11) = (   0.0000000   0.5000000   0.5000000  )
        12           O2  tau(  12) = (   0.5000000   0.0000000   0.5000000  )
        13           O2  tau(  13) = (   1.0000000   0.5000000   0.5000000  )
        14           O2  tau(  14) = (   0.5000000   1.0000000   0.5000000  )
        15           O2  tau(  15) = (   0.5000000   0.5000000   1.0000000  )
        16           O2  tau(  16) = (   1.0000000   1.0000000   1.0000000  )

     number of k points=     8  gaussian smearing, width (Ry)=  0.0100
                       cart. coord. in units 2pi/alat
        k(    1) = (   0.0000000   0.0000000   0.0000000), wk =   0.1250000
        k(    2) = (   0.2500000  -0.2500000  -0.2500000), wk =   0.3750000
        k(    3) = (   0.0000000   0.0000000  -0.5000000), wk =   0.3750000
        k(    4) = (  -0.2500000  -0.2500000  -0.2500000), wk =   0.1250000
        k(    5) = (   0.0000000   0.0000000   0.0000000), wk =   0.1250000
        k(    6) = (   0.2500000  -0.2500000  -0.2500000), wk =   0.3750000
        k(    7) = (   0.0000000   0.0000000  -0.5000000), wk =   0.3750000
        k(    8) = (  -0.2500000  -0.2500000  -0.2500000), wk =   0.1250000

     Dense  grid:    86547 G-vectors     FFT dimensions: (  64,  64,  64)

     Smooth grid:    22075 G-vectors     FFT dimensions: (  40,  40,  40)

     Largest allocated arrays     est. size (Mb)     dimensions
        Kohn-Sham Wavefunctions         3.25 Mb     (   2764,   77)
        Atomic wavefunctions            3.37 Mb     (   2764,   80)
        NL pseudopotentials             8.77 Mb     (   2764,  208)
        Each V/rho on FFT grid          8.00 Mb     ( 262144,   2)
        Each G-vector array             0.66 Mb     (  86547)
        G-vector shells                 0.00 Mb     (    635)
     Largest temporary arrays     est. size (Mb)     dimensions
        Auxiliary wavefunctions        12.99 Mb     (   2764,  308)
        Each subspace H/S matrix        1.45 Mb     ( 308, 308)
        Each <psi_i|beta_j> matrix      0.24 Mb     (    208,   77)
        Arrays for rho mixing          32.00 Mb     ( 262144,   8)

     Check: negative/imaginary core charge=   -0.000047    0.000000

     The initial density is read from file :
     ./temp/nio.save/charge-density.dat

     Number of +U iterations with fixed ns =  0
     Starting occupations:
 --- enter write_ns ---
 LDA+U parameters:
U( 1)     =  0.00000000
alpha( 1) =  0.00000000
U( 2)     =  0.00000000
alpha( 2) =  0.00000000
U( 3)     =  0.00000000
alpha( 3) =  0.15000000
U( 4)     =  0.00000000
alpha( 4) =  0.00000000
atom    1   Tr[ns(na)] (up, down, total) =   4.96210  3.72838  8.69048
   spin  1
    eigenvalues: 
  0.985  0.985  0.997  0.997  0.997
    eigenvectors:
  1.000  0.000  0.000  0.000  0.000
  0.000  0.000  0.500  0.170  0.330
  0.000  0.000  0.500  0.170  0.330
  0.000  1.000  0.000  0.000  0.000
  0.000  0.000  0.000  0.660  0.339
    occupations:
  0.985  0.000  0.000  0.000  0.000
  0.000  0.997  0.000  0.000  0.000
  0.000  0.000  0.997  0.000  0.000
  0.000  0.000  0.000  0.985  0.000
  0.000  0.000  0.000  0.000  0.997
   spin  2
    eigenvalues: 
  0.370  0.370  0.996  0.996  0.996
    eigenvectors:
  0.000  1.000  0.000  0.000  0.000
  0.000  0.000  0.167  0.500  0.333
  0.000  0.000  0.167  0.500  0.333
  1.000  0.000  0.000  0.000  0.000
  0.000  0.000  0.667  0.000  0.333
    occupations:
  0.370  0.000  0.000  0.000  0.001
  0.000  0.996  0.000  0.001  0.000
  0.000  0.000  0.996 -0.001  0.000
  0.000  0.001 -0.001  0.370  0.000
  0.001  0.000  0.000  0.000  0.996
atomic mag. moment =     1.233727
atom    2   Tr[ns(na)] (up, down, total) =   4.96210  3.72838  8.69048
   spin  1
    eigenvalues: 
  0.985  0.985  0.997  0.997  0.997
    eigenvectors:
  0.250  0.750  0.000  0.000  0.000
  0.000  0.000  0.000  0.660  0.339
  0.000  0.000  0.500  0.170  0.330
  0.750  0.250  0.000  0.000  0.000
  0.000  0.000  0.500  0.170  0.330
    occupations:
  0.985  0.000  0.000  0.000  0.000
  0.000  0.997  0.000  0.000  0.000
  0.000  0.000  0.997  0.000  0.000
  0.000  0.000  0.000  0.985  0.000
  0.000  0.000  0.000  0.000  0.997
   spin  2
    eigenvalues: 
  0.370  0.370  0.996  0.996  0.996
    eigenvectors:
  0.750  0.250  0.000  0.000  0.000
  0.000  0.000  0.667  0.000  0.333
  0.000  0.000  0.167  0.500  0.333
  0.250  0.750  0.000  0.000  0.000
  0.000  0.000  0.167  0.500  0.333
    occupations:
  0.370  0.000  0.000  0.000  0.001
  0.000  0.996  0.000  0.001  0.000
  0.000  0.000  0.996 -0.001  0.000
  0.000  0.001 -0.001  0.370  0.000
  0.001  0.000  0.000  0.000  0.996
atomic mag. moment =     1.233727
atom    3   Tr[ns(na)] (up, down, total) =   4.96210  3.72838  8.69048
   spin  1
    eigenvalues: 
  0.985  0.985  0.997  0.997  0.997
    eigenvectors:
  0.250  0.750  0.000  0.000  0.000
  0.000  0.000  0.500  0.170  0.330
  0.000  0.000  0.000  0.660  0.339
  0.750  0.250  0.000  0.000  0.000
  0.000  0.000  0.500  0.170  0.330
    occupations:
  0.985  0.000  0.000  0.000  0.000
  0.000  0.997  0.000  0.000  0.000
  0.000  0.000  0.997  0.000  0.000
  0.000  0.000  0.000  0.985  0.000
  0.000  0.000  0.000  0.000  0.997
   spin  2
    eigenvalues: 
  0.370  0.370  0.996  0.996  0.996
    eigenvectors:
  0.750  0.250  0.000  0.000  0.000
  0.000  0.000  0.167  0.500  0.333
  0.000  0.000  0.667  0.000  0.333
  0.250  0.750  0.000  0.000  0.000
  0.000  0.000  0.167  0.500  0.333
    occupations:
  0.370  0.000  0.000  0.000  0.001
  0.000  0.996  0.000  0.001  0.000
  0.000  0.000  0.996 -0.001  0.000
  0.000  0.001 -0.001  0.370  0.000
  0.001  0.000  0.000  0.000  0.996
atomic mag. moment =     1.233727
atom    4   Tr[ns(na)] (up, down, total) =   4.96210  3.72838  8.69048
   spin  1
    eigenvalues: 
  0.985  0.985  0.997  0.997  0.997
    eigenvectors:
  0.160  0.840  0.000  0.000  0.000
  0.000  0.000  0.526  0.140  0.333
  0.000  0.000  0.001  0.665  0.333
  0.840  0.160  0.000  0.000  0.000
  0.000  0.000  0.472  0.195  0.333
    occupations:
  0.985  0.000  0.000  0.000  0.000
  0.000  0.997  0.000  0.000  0.000
  0.000  0.000  0.997  0.000  0.000
  0.000  0.000  0.000  0.985  0.000
  0.000  0.000  0.000  0.000  0.997
   spin  2
    eigenvalues: 
  0.370  0.370  0.996  0.996  0.996
    eigenvectors:
  0.203  0.797  0.000  0.000  0.000
  0.000  0.000  0.144  0.522  0.333
  0.000  0.000  0.190  0.477  0.333
  0.797  0.203  0.000  0.000  0.000
  0.000  0.000  0.666  0.001  0.333
    occupations:
  0.370  0.000  0.000  0.000  0.001
  0.000  0.996  0.000  0.001  0.000
  0.000  0.000  0.996 -0.001  0.000
  0.000  0.001 -0.001  0.370  0.000
  0.001  0.000  0.000  0.000  0.996
atomic mag. moment =     1.233726
atom    5   Tr[ns(na)] (up, down, total) =   3.72838  4.96211  8.69049
   spin  1
    eigenvalues: 
  0.370  0.370  0.996  0.996  0.996
    eigenvectors:
  0.140  0.860  0.000  0.000  0.000
  0.000  0.000  0.119  0.548  0.333
  0.000  0.000  0.220  0.447  0.333
  0.860  0.140  0.000  0.000  0.000
  0.000  0.000  0.662  0.005  0.333
    occupations:
  0.370  0.000  0.000  0.000  0.001
  0.000  0.996  0.000  0.001  0.000
  0.000  0.000  0.996 -0.001  0.000
  0.000  0.001 -0.001  0.370  0.000
  0.001  0.000  0.000  0.000  0.996
   spin  2
    eigenvalues: 
  0.985  0.985  0.997  0.997  0.997
    eigenvectors:
  0.323  0.677  0.000  0.000  0.000
  0.000  0.000  0.060  0.606  0.333
  0.000  0.000  0.304  0.363  0.333
  0.677  0.323  0.000  0.000  0.000
  0.000  0.000  0.635  0.031  0.333
    occupations:
  0.985  0.000  0.000  0.000  0.000
  0.000  0.997  0.000  0.000  0.000
  0.000  0.000  0.997  0.000  0.000
  0.000  0.000  0.000  0.985  0.000
  0.000  0.000  0.000  0.000  0.997
atomic mag. moment =    -1.233725
atom    6   Tr[ns(na)] (up, down, total) =   3.72838  4.96211  8.69049
   spin  1
    eigenvalues: 
  0.370  0.370  0.996  0.996  0.996
    eigenvectors:
  0.750  0.250  0.000  0.000  0.000
  0.000  0.000  0.500  0.167  0.333
  0.000  0.000  0.000  0.667  0.333
  0.250  0.750  0.000  0.000  0.000
  0.000  0.000  0.500  0.167  0.333
    occupations:
  0.370  0.000  0.000  0.000  0.001
  0.000  0.996  0.000  0.001  0.000
  0.000  0.000  0.996 -0.001  0.000
  0.000  0.001 -0.001  0.370  0.000
  0.001  0.000  0.000  0.000  0.996
   spin  2
    eigenvalues: 
  0.985  0.985  0.997  0.997  0.997
    eigenvectors:
  0.250  0.750  0.000  0.000  0.000
  0.000  0.000  0.500  0.166  0.334
  0.000  0.000  0.000  0.668  0.332
  0.750  0.250  0.000  0.000  0.000
  0.000  0.000  0.500  0.166  0.334
    occupations:
  0.985  0.000  0.000  0.000  0.000
  0.000  0.997  0.000  0.000  0.000
  0.000  0.000  0.997  0.000  0.000
  0.000  0.000  0.000  0.985  0.000
  0.000  0.000  0.000  0.000  0.997
atomic mag. moment =    -1.233723
atom    7   Tr[ns(na)] (up, down, total) =   3.72838  4.96211  8.69049
   spin  1
    eigenvalues: 
  0.370  0.370  0.996  0.996  0.996
    eigenvectors:
  0.750  0.250  0.000  0.000  0.000
  0.000  0.000  0.000  0.667  0.333
  0.000  0.000  0.500  0.167  0.333
  0.250  0.750  0.000  0.000  0.000
  0.000  0.000  0.500  0.167  0.333
    occupations:
  0.370  0.000  0.000  0.000  0.001
  0.000  0.996  0.000  0.001  0.000
  0.000  0.000  0.996 -0.001  0.000
  0.000  0.001 -0.001  0.370  0.000
  0.001  0.000  0.000  0.000  0.996
   spin  2
    eigenvalues: 
  0.985  0.985  0.997  0.997  0.997
    eigenvectors:
  0.250  0.750  0.000  0.000  0.000
  0.000  0.000  0.000  0.668  0.332
  0.000  0.000  0.500  0.166  0.334
  0.750  0.250  0.000  0.000  0.000
  0.000  0.000  0.500  0.166  0.334
    occupations:
  0.985  0.000  0.000  0.000  0.000
  0.000  0.997  0.000  0.000  0.000
  0.000  0.000  0.997  0.000  0.000
  0.000  0.000  0.000  0.985  0.000
  0.000  0.000  0.000  0.000  0.997
atomic mag. moment =    -1.233723
atom    8   Tr[ns(na)] (up, down, total) =   3.72838  4.96211  8.69049
   spin  1
    eigenvalues: 
  0.370  0.370  0.996  0.996  0.996
    eigenvectors:
  0.000  1.000  0.000  0.000  0.000
  0.000  0.000  0.500  0.167  0.333
  0.000  0.000  0.500  0.167  0.333
  1.000  0.000  0.000  0.000  0.000
  0.000  0.000  0.000  0.667  0.333
    occupations:
  0.370  0.000  0.000  0.000  0.001
  0.000  0.996  0.000  0.001  0.000
  0.000  0.000  0.996 -0.001  0.000
  0.000  0.001 -0.001  0.370  0.000
  0.001  0.000  0.000  0.000  0.996
   spin  2
    eigenvalues: 
  0.985  0.985  0.997  0.997  0.997
    eigenvectors:
  1.000  0.000  0.000  0.000  0.000
  0.000  0.000  0.500  0.166  0.334
  0.000  0.000  0.500  0.166  0.334
  0.000  1.000  0.000  0.000  0.000
  0.000  0.000  0.000  0.668  0.332
    occupations:
  0.985  0.000  0.000  0.000  0.000
  0.000  0.997  0.000  0.000  0.000
  0.000  0.000  0.997  0.000  0.000
  0.000  0.000  0.000  0.985  0.000
  0.000  0.000  0.000  0.000  0.997
atomic mag. moment =    -1.233723
atom    9   Tr[ns(na)] (up, down, total) =   2.81403  2.81403  5.62805
   spin  1
    eigenvalues: 
  0.938  0.938  0.938
    eigenvectors:
  0.397  0.270  0.333
  0.585  0.081  0.333
  0.018  0.648  0.333
    occupations:
  0.938  0.000  0.000
  0.000  0.938  0.000
  0.000  0.000  0.938
   spin  2
    eigenvalues: 
  0.938  0.938  0.938
    eigenvectors:
  0.394  0.273  0.333
  0.587  0.080  0.333
  0.019  0.647  0.333
    occupations:
  0.938  0.000  0.000
  0.000  0.938  0.000
  0.000  0.000  0.938
atomic mag. moment =    -0.000001
atom   10   Tr[ns(na)] (up, down, total) =   2.81402  2.81403  5.62805
   spin  1
    eigenvalues: 
  0.938  0.938  0.938
    eigenvectors:
  0.000  0.666  0.334
  0.500  0.167  0.333
  0.500  0.167  0.333
    occupations:
  0.938  0.000  0.000
  0.000  0.938  0.000
  0.000  0.000  0.938
   spin  2
    eigenvalues: 
  0.938  0.938  0.938
    eigenvectors:
  0.000  0.667  0.333
  0.500  0.166  0.334
  0.500  0.166  0.334
    occupations:
  0.938  0.000  0.000
  0.000  0.938  0.000
  0.000  0.000  0.938
atomic mag. moment =    -0.000001
atom   11   Tr[ns(na)] (up, down, total) =   2.81402  2.81403  5.62805
   spin  1
    eigenvalues: 
  0.938  0.938  0.938
    eigenvectors:
  0.500  0.167  0.333
  0.000  0.666  0.334
  0.500  0.167  0.333
    occupations:
  0.938  0.000  0.000
  0.000  0.938  0.000
  0.000  0.000  0.938
   spin  2
    eigenvalues: 
  0.938  0.938  0.938
    eigenvectors:
  0.500  0.166  0.334
  0.000  0.667  0.333
  0.500  0.166  0.334
    occupations:
  0.938  0.000  0.000
  0.000  0.938  0.000
  0.000  0.000  0.938
atomic mag. moment =    -0.000001
atom   12   Tr[ns(na)] (up, down, total) =   2.81402  2.81403  5.62805
   spin  1
    eigenvalues: 
  0.938  0.938  0.938
    eigenvectors:
  0.500  0.167  0.333
  0.500  0.167  0.333
  0.000  0.666  0.334
    occupations:
  0.938  0.000  0.000
  0.000  0.938  0.000
  0.000  0.000  0.938
   spin  2
    eigenvalues: 
  0.938  0.938  0.938
    eigenvectors:
  0.500  0.166  0.334
  0.500  0.166  0.334
  0.000  0.667  0.333
    occupations:
  0.938  0.000  0.000
  0.000  0.938  0.000
  0.000  0.000  0.938
atomic mag. moment =    -0.000001
atom   13   Tr[ns(na)] (up, down, total) =   2.81402  2.81402  5.62805
   spin  1
    eigenvalues: 
  0.938  0.938  0.938
    eigenvectors:
  0.167  0.500  0.333
  0.666  0.000  0.334
  0.167  0.500  0.333
    occupations:
  0.938  0.000  0.000
  0.000  0.938  0.000
  0.000  0.000  0.938
   spin  2
    eigenvalues: 
  0.938  0.938  0.938
    eigenvectors:
  0.166  0.500  0.334
  0.667  0.000  0.333
  0.166  0.500  0.334
    occupations:
  0.938  0.000  0.000
  0.000  0.938  0.000
  0.000  0.000  0.938
atomic mag. moment =    -0.000001
atom   14   Tr[ns(na)] (up, down, total) =   2.81402  2.81402  5.62805
   spin  1
    eigenvalues: 
  0.938  0.938  0.938
    eigenvectors:
  0.167  0.500  0.333
  0.167  0.500  0.333
  0.666  0.000  0.334
    occupations:
  0.938  0.000  0.000
  0.000  0.938  0.000
  0.000  0.000  0.938
   spin  2
    eigenvalues: 
  0.938  0.938  0.938
    eigenvectors:
  0.166  0.500  0.334
  0.166  0.500  0.334
  0.667  0.000  0.333
    occupations:
  0.938  0.000  0.000
  0.000  0.938  0.000
  0.000  0.000  0.938
atomic mag. moment =    -0.000001
atom   15   Tr[ns(na)] (up, down, total) =   2.81402  2.81402  5.62805
   spin  1
    eigenvalues: 
  0.938  0.938  0.938
    eigenvectors:
  0.666  0.000  0.334
  0.167  0.500  0.333
  0.167  0.500  0.333
    occupations:
  0.938  0.000  0.000
  0.000  0.938  0.000
  0.000  0.000  0.938
   spin  2
    eigenvalues: 
  0.938  0.938  0.938
    eigenvectors:
  0.667  0.000  0.333
  0.166  0.500  0.334
  0.166  0.500  0.334
    occupations:
  0.938  0.000  0.000
  0.000  0.938  0.000
  0.000  0.000  0.938
atomic mag. moment =    -0.000001
atom   16   Tr[ns(na)] (up, down, total) =   2.81402  2.81402  5.62804
   spin  1
    eigenvalues: 
  0.938  0.938  0.938
    eigenvectors:
  0.394  0.272  0.333
  0.587  0.080  0.333
  0.019  0.648  0.333
    occupations:
  0.938  0.000  0.000
  0.000  0.938  0.000
  0.000  0.000  0.938
   spin  2
    eigenvalues: 
  0.938  0.938  0.938
    eigenvectors:
  0.384  0.283  0.333
  0.593  0.073  0.333
  0.023  0.644  0.333
    occupations:
  0.938  0.000  0.000
  0.000  0.938  0.000
  0.000  0.000  0.938
atomic mag. moment =    -0.000001
N of occupied +U levels = 114.5482719
 --- exit write_ns ---
 Atomic wfc used for LDA+U Projector are NOT orthogonalized
     Starting wfc from file

     total cpu time spent up to now is       14.4 secs

     per-process dynamical memory:    86.2 Mb

     Self-consistent Calculation

     iteration #  1     ecut=    30.00 Ry     beta=0.30
     Davidson diagonalization with overlap
     c_bands:  1 eigenvalues not converged
     ethr =  2.19E-11,  avg # of iterations = 17.0
 --- enter write_ns ---
 LDA+U parameters:
U( 1)     =  0.00000000
alpha( 1) =  0.00000000
U( 2)     =  0.00000000
alpha( 2) =  0.00000000
U( 3)     =  0.00000000
alpha( 3) =  0.15000000
U( 4)     =  0.00000000
alpha( 4) =  0.00000000
atom    1   Tr[ns(na)] (up, down, total) =   4.96213  3.73060  8.69273
   spin  1
    eigenvalues: 
  0.985  0.985  0.997  0.997  0.997
    eigenvectors:
  0.000  1.000  0.000  0.000  0.000
  0.000  0.000  0.401  0.500  0.099
  0.000  0.000  0.401  0.500  0.099
  1.000  0.000  0.000  0.000  0.000
  0.000  0.000  0.198  0.000  0.801
    occupations:
  0.985  0.000  0.000  0.000  0.000
  0.000  0.997  0.000  0.000  0.000
  0.000  0.000  0.997  0.000  0.000
  0.000  0.000  0.000  0.985  0.000
  0.000  0.000  0.000  0.000  0.997
   spin  2
    eigenvalues: 
  0.371  0.373  0.996  0.996  0.996
    eigenvectors:
  0.000  1.000  0.000  0.000  0.000
  0.000  0.000  0.500  0.190  0.310
  0.000  0.000  0.500  0.190  0.310
  1.000  0.000  0.000  0.000  0.000
  0.000  0.000  0.000  0.620  0.380
    occupations:
  0.373  0.000  0.000  0.000  0.001
  0.000  0.996  0.000  0.001  0.000
  0.000  0.000  0.996 -0.001  0.000
  0.000  0.001 -0.001  0.371  0.000
  0.001  0.000  0.000  0.000  0.996
atomic mag. moment =     1.231530
atom    2   Tr[ns(na)] (up, down, total) =   4.96213  3.73060  8.69273
   spin  1
    eigenvalues: 
  0.985  0.985  0.997  0.997  0.997
    eigenvectors:
  0.750  0.250  0.000  0.000  0.000
  0.000  0.000  0.198  0.000  0.801
  0.000  0.000  0.401  0.500  0.099
  0.250  0.750  0.000  0.000  0.000
  0.000  0.000  0.401  0.500  0.099
    occupations:
  0.985  0.000  0.000  0.000  0.000
  0.000  0.997  0.000  0.000  0.000
  0.000  0.000  0.997  0.000  0.000
  0.000  0.000  0.000  0.985  0.000
  0.000  0.000  0.000  0.000  0.997
   spin  2
    eigenvalues: 
  0.371  0.373  0.996  0.996  0.996
    eigenvectors:
  0.750  0.250  0.000  0.000  0.000
  0.000  0.000  0.000  0.620  0.380
  0.000  0.000  0.500  0.190  0.310
  0.250  0.750  0.000  0.000  0.000
  0.000  0.000  0.500  0.190  0.310
    occupations:
  0.371  0.000  0.000  0.001  0.001
  0.000  0.996  0.000  0.001  0.000
  0.000  0.000  0.996 -0.001  0.000
  0.001  0.001 -0.001  0.372  0.000
  0.001  0.000  0.000  0.000  0.996
atomic mag. moment =     1.231530
atom    3   Tr[ns(na)] (up, down, total) =   4.96213  3.73060  8.69273
   spin  1
    eigenvalues: 
  0.985  0.985  0.997  0.997  0.997
    eigenvectors:
  0.750  0.250  0.000  0.000  0.000
  0.000  0.000  0.401  0.500  0.099
  0.000  0.000  0.198  0.000  0.801
  0.250  0.750  0.000  0.000  0.000
  0.000  0.000  0.401  0.500  0.099
    occupations:
  0.985  0.000  0.000  0.000  0.000
  0.000  0.997  0.000  0.000  0.000
  0.000  0.000  0.997  0.000  0.000
  0.000  0.000  0.000  0.985  0.000
  0.000  0.000  0.000  0.000  0.997
   spin  2
    eigenvalues: 
  0.371  0.373  0.996  0.996  0.996
    eigenvectors:
  0.750  0.250  0.000  0.000  0.000
  0.000  0.000  0.500  0.190  0.310
  0.000  0.000  0.000  0.620  0.380
  0.250  0.750  0.000  0.000  0.000
  0.000  0.000  0.500  0.190  0.310
    occupations:
  0.371  0.000  0.000 -0.001  0.001
  0.000  0.996  0.000  0.001  0.000
  0.000  0.000  0.996 -0.001  0.000
 -0.001  0.001 -0.001  0.372  0.000
  0.001  0.000  0.000  0.000  0.996
atomic mag. moment =     1.231530
atom    4   Tr[ns(na)] (up, down, total) =   4.96211  3.72842  8.69053
   spin  1
    eigenvalues: 
  0.985  0.985  0.997  0.997  0.997
    eigenvectors:
  0.173  0.827  0.000  0.000  0.000
  0.000  0.000  0.333  0.154  0.513
  0.000  0.000  0.333  0.180  0.487
  0.827  0.173  0.000  0.000  0.000
  0.000  0.000  0.333  0.666  0.000
    occupations:
  0.985  0.000  0.000  0.000  0.000
  0.000  0.997  0.000  0.000  0.000
  0.000  0.000  0.997  0.000  0.000
  0.000  0.000  0.000  0.985  0.000
  0.000  0.000  0.000  0.000  0.997
   spin  2
    eigenvalues: 
  0.370  0.370  0.996  0.996  0.996
    eigenvectors:
  0.268  0.732  0.000  0.000  0.000
  0.000  0.000  0.054  0.612  0.333
  0.000  0.000  0.315  0.351  0.333
  0.732  0.268  0.000  0.000  0.000
  0.000  0.000  0.631  0.036  0.333
    occupations:
  0.370  0.000  0.000  0.000  0.001
  0.000  0.996  0.000  0.001  0.000
  0.000  0.000  0.996 -0.001  0.000
  0.000  0.001 -0.001  0.370  0.000
  0.001  0.000  0.000  0.000  0.996
atomic mag. moment =     1.233695
atom    5   Tr[ns(na)] (up, down, total) =   3.72841  4.96211  8.69052
   spin  1
    eigenvalues: 
  0.370  0.370  0.996  0.996  0.996
    eigenvectors:
  0.189  0.811  0.000  0.000  0.000
  0.000  0.000  0.144  0.522  0.333
  0.000  0.000  0.190  0.477  0.333
  0.811  0.189  0.000  0.000  0.000
  0.000  0.000  0.666  0.001  0.333
    occupations:
  0.370  0.000  0.000  0.000  0.001
  0.000  0.996  0.000  0.001  0.000
  0.000  0.000  0.996 -0.001  0.000
  0.000  0.001 -0.001  0.370  0.000
  0.001  0.000  0.000  0.000  0.996
   spin  2
    eigenvalues: 
  0.985  0.985  0.997  0.997  0.997
    eigenvectors:
  0.219  0.781  0.000  0.000  0.000
  0.000  0.000  0.333  0.143  0.524
  0.000  0.000  0.333  0.192  0.475
  0.781  0.219  0.000  0.000  0.000
  0.000  0.000  0.333  0.665  0.001
    occupations:
  0.985  0.000  0.000  0.000  0.000
  0.000  0.997  0.000  0.000  0.000
  0.000  0.000  0.997  0.000  0.000
  0.000  0.000  0.000  0.985  0.000
  0.000  0.000  0.000  0.000  0.997
atomic mag. moment =    -1.233704
atom    6   Tr[ns(na)] (up, down, total) =   3.73057  4.96212  8.69270
   spin  1
    eigenvalues: 
  0.371  0.373  0.996  0.996  0.996
    eigenvectors:
  0.750  0.250  0.000  0.000  0.000
  0.000  0.000  0.500  0.190  0.310
  0.000  0.000  0.000  0.621  0.379
  0.250  0.750  0.000  0.000  0.000
  0.000  0.000  0.500  0.190  0.310
    occupations:
  0.371  0.000  0.000 -0.001  0.001
  0.000  0.996  0.000  0.001  0.000
  0.000  0.000  0.996 -0.001  0.000
 -0.001  0.001 -0.001  0.372  0.000
  0.001  0.000  0.000  0.000  0.996
   spin  2
    eigenvalues: 
  0.985  0.985  0.997  0.997  0.997
    eigenvectors:
  0.750  0.250  0.000  0.000  0.000
  0.000  0.000  0.410  0.500  0.090
  0.000  0.000  0.180  0.000  0.820
  0.250  0.750  0.000  0.000  0.000
  0.000  0.000  0.410  0.500  0.090
    occupations:
  0.985  0.000  0.000  0.000  0.000
  0.000  0.997  0.000  0.000  0.000
  0.000  0.000  0.997  0.000  0.000
  0.000  0.000  0.000  0.985  0.000
  0.000  0.000  0.000  0.000  0.997
atomic mag. moment =    -1.231551
atom    7   Tr[ns(na)] (up, down, total) =   3.73057  4.96212  8.69270
   spin  1
    eigenvalues: 
  0.371  0.373  0.996  0.996  0.996
    eigenvectors:
  0.750  0.250  0.000  0.000  0.000
  0.000  0.000  0.000  0.621  0.379
  0.000  0.000  0.500  0.190  0.310
  0.250  0.750  0.000  0.000  0.000
  0.000  0.000  0.500  0.190  0.310
    occupations:
  0.371  0.000  0.000  0.001  0.001
  0.000  0.996  0.000  0.001  0.000
  0.000  0.000  0.996 -0.001  0.000
  0.001  0.001 -0.001  0.372  0.000
  0.001  0.000  0.000  0.000  0.996
   spin  2
    eigenvalues: 
  0.985  0.985  0.997  0.997  0.997
    eigenvectors:
  0.750  0.250  0.000  0.000  0.000
  0.000  0.000  0.180  0.000  0.820
  0.000  0.000  0.410  0.500  0.090
  0.250  0.750  0.000  0.000  0.000
  0.000  0.000  0.410  0.500  0.090
    occupations:
  0.985  0.000  0.000  0.000  0.000
  0.000  0.997  0.000  0.000  0.000
  0.000  0.000  0.997  0.000  0.000
  0.000  0.000  0.000  0.985  0.000
  0.000  0.000  0.000  0.000  0.997
atomic mag. moment =    -1.231551
atom    8   Tr[ns(na)] (up, down, total) =   3.73057  4.96212  8.69270
   spin  1
    eigenvalues: 
  0.371  0.373  0.996  0.996  0.996
    eigenvectors:
  0.000  1.000  0.000  0.000  0.000
  0.000  0.000  0.500  0.190  0.310
  0.000  0.000  0.500  0.190  0.310
  1.000  0.000  0.000  0.000  0.000
  0.000  0.000  0.000  0.621  0.379
    occupations:
  0.373  0.000  0.000  0.000  0.001
  0.000  0.996  0.000  0.001  0.000
  0.000  0.000  0.996 -0.001  0.000
  0.000  0.001 -0.001  0.371  0.000
  0.001  0.000  0.000  0.000  0.996
   spin  2
    eigenvalues: 
  0.985  0.985  0.997  0.997  0.997
    eigenvectors:
  0.000  1.000  0.000  0.000  0.000
  0.000  0.000  0.410  0.500  0.090
  0.000  0.000  0.410  0.500  0.090
  1.000  0.000  0.000  0.000  0.000
  0.000  0.000  0.180  0.000  0.820
    occupations:
  0.985  0.000  0.000  0.000  0.000
  0.000  0.997  0.000  0.000  0.000
  0.000  0.000  0.997  0.000  0.000
  0.000  0.000  0.000  0.985  0.000
  0.000  0.000  0.000  0.000  0.997
atomic mag. moment =    -1.231551
atom    9   Tr[ns(na)] (up, down, total) =   2.80724  2.80724  5.61448
   spin  1
    eigenvalues: 
  0.936  0.936  0.936
    eigenvectors:
  0.427  0.240  0.333
  0.563  0.103  0.333
  0.009  0.657  0.333
    occupations:
  0.936  0.000  0.000
  0.000  0.936  0.000
  0.000  0.000  0.936
   spin  2
    eigenvalues: 
  0.936  0.936  0.936
    eigenvectors:
  0.368  0.299  0.333
  0.603  0.063  0.333
  0.029  0.638  0.333
    occupations:
  0.936  0.000  0.000
  0.000  0.936  0.000
  0.000  0.000  0.936
atomic mag. moment =     0.000006
atom   10   Tr[ns(na)] (up, down, total) =   2.81405  2.81404  5.62809
   spin  1
    eigenvalues: 
  0.938  0.938  0.938
    eigenvectors:
  0.423  0.577  0.000
  0.288  0.212  0.500
  0.288  0.212  0.500
    occupations:
  0.938  0.000  0.000
  0.000  0.938  0.000
  0.000  0.000  0.938
   spin  2
    eigenvalues: 
  0.938  0.938  0.938
    eigenvectors:
  0.418  0.582  0.000
  0.291  0.209  0.500
  0.291  0.209  0.500
    occupations:
  0.938  0.000  0.000
  0.000  0.938  0.000
  0.000  0.000  0.938
atomic mag. moment =     0.000005
atom   11   Tr[ns(na)] (up, down, total) =   2.81405  2.81404  5.62809
   spin  1
    eigenvalues: 
  0.938  0.938  0.938
    eigenvectors:
  0.288  0.212  0.500
  0.423  0.577  0.000
  0.288  0.212  0.500
    occupations:
  0.938  0.000  0.000
  0.000  0.938  0.000
  0.000  0.000  0.938
   spin  2
    eigenvalues: 
  0.938  0.938  0.938
    eigenvectors:
  0.291  0.209  0.500
  0.418  0.582  0.000
  0.291  0.209  0.500
    occupations:
  0.938  0.000  0.000
  0.000  0.938  0.000
  0.000  0.000  0.938
atomic mag. moment =     0.000005
atom   12   Tr[ns(na)] (up, down, total) =   2.81405  2.81404  5.62809
   spin  1
    eigenvalues: 
  0.938  0.938  0.938
    eigenvectors:
  0.288  0.212  0.500
  0.288  0.212  0.500
  0.423  0.577  0.000
    occupations:
  0.938  0.000  0.000
  0.000  0.938  0.000
  0.000  0.000  0.938
   spin  2
    eigenvalues: 
  0.938  0.938  0.938
    eigenvectors:
  0.291  0.209  0.500
  0.291  0.209  0.500
  0.418  0.582  0.000
    occupations:
  0.938  0.000  0.000
  0.000  0.938  0.000
  0.000  0.000  0.938
atomic mag. moment =     0.000005
atom   13   Tr[ns(na)] (up, down, total) =   2.81402  2.81402  5.62804
   spin  1
    eigenvalues: 
  0.938  0.938  0.938
    eigenvectors:
  0.500  0.101  0.399
  0.000  0.798  0.202
  0.500  0.101  0.399
    occupations:
  0.938  0.000  0.000
  0.000  0.938  0.000
  0.000  0.000  0.938
   spin  2
    eigenvalues: 
  0.938  0.938  0.938
    eigenvectors:
  0.500  0.102  0.398
  0.000  0.795  0.205
  0.500  0.102  0.398
    occupations:
  0.938  0.000  0.000
  0.000  0.938  0.000
  0.000  0.000  0.938
atomic mag. moment =     0.000005
atom   14   Tr[ns(na)] (up, down, total) =   2.81402  2.81402  5.62804
   spin  1
    eigenvalues: 
  0.938  0.938  0.938
    eigenvectors:
  0.500  0.101  0.399
  0.500  0.101  0.399
  0.000  0.798  0.202
    occupations:
  0.938  0.000  0.000
  0.000  0.938  0.000
  0.000  0.000  0.938
   spin  2
    eigenvalues: 
  0.938  0.938  0.938
    eigenvectors:
  0.500  0.102  0.398
  0.500  0.102  0.398
  0.000  0.795  0.205
    occupations:
  0.938  0.000  0.000
  0.000  0.938  0.000
  0.000  0.000  0.938
atomic mag. moment =     0.000005
atom   15   Tr[ns(na)] (up, down, total) =   2.81402  2.81402  5.62804
   spin  1
    eigenvalues: 
  0.938  0.938  0.938
    eigenvectors:
  0.000  0.798  0.202
  0.500  0.101  0.399
  0.500  0.101  0.399
    occupations:
  0.938  0.000  0.000
  0.000  0.938  0.000
  0.000  0.000  0.938
   spin  2
    eigenvalues: 
  0.938  0.938  0.938
    eigenvectors:
  0.000  0.795  0.205
  0.500  0.102  0.398
  0.500  0.102  0.398
    occupations:
  0.938  0.000  0.000
  0.000  0.938  0.000
  0.000  0.000  0.938
atomic mag. moment =     0.000005
atom   16   Tr[ns(na)] (up, down, total) =   2.81472  2.81472  5.62944
   spin  1
    eigenvalues: 
  0.938  0.938  0.938
    eigenvectors:
  0.344  0.323  0.333
  0.617  0.050  0.333
  0.039  0.627  0.333
    occupations:
  0.938  0.000  0.000
  0.000  0.938  0.000
  0.000  0.000  0.938
   spin  2
    eigenvalues: 
  0.938  0.938  0.938
    eigenvectors:
  0.398  0.269  0.333
  0.584  0.082  0.333
  0.018  0.649  0.333
    occupations:
  0.938  0.000  0.000
  0.000  0.938  0.000
  0.000  0.000  0.938
atomic mag. moment =     0.000005
N of occupied +U levels = 114.5496693
 --- exit write_ns ---

     total cpu time spent up to now is       49.0 secs

     total energy              =    -941.93411327 Ry
     Harris-Foulkes estimate   =    -941.93422526 Ry
     estimated scf accuracy    <       0.00024669 Ry

     total magnetization       =     0.00 Bohr mag/cell
     absolute magnetization    =    12.65 Bohr mag/cell

     iteration #  2     ecut=    30.00 Ry     beta=0.30
     Davidson diagonalization with overlap
     ethr =  1.93E-07,  avg # of iterations =  2.0

     total cpu time spent up to now is       74.7 secs

     total energy              =    -941.93417093 Ry
     Harris-Foulkes estimate   =    -941.93419086 Ry
     estimated scf accuracy    <       0.00006055 Ry

     total magnetization       =     0.00 Bohr mag/cell
     absolute magnetization    =    12.66 Bohr mag/cell

     iteration #  3     ecut=    30.00 Ry     beta=0.30
     Davidson diagonalization with overlap
     ethr =  4.73E-08,  avg # of iterations =  2.0

     total cpu time spent up to now is      100.3 secs

     total energy              =    -941.93418003 Ry
     Harris-Foulkes estimate   =    -941.93418019 Ry
     estimated scf accuracy    <       0.00000089 Ry

     total magnetization       =     0.00 Bohr mag/cell
     absolute magnetization    =    12.65 Bohr mag/cell

     iteration #  4     ecut=    30.00 Ry     beta=0.30
     Davidson diagonalization with overlap
     ethr =  6.98E-10,  avg # of iterations =  2.0

     total cpu time spent up to now is      125.9 secs

     total energy              =    -941.93418010 Ry
     Harris-Foulkes estimate   =    -941.93418012 Ry
     estimated scf accuracy    <       0.00000032 Ry

     total magnetization       =     0.00 Bohr mag/cell
     absolute magnetization    =    12.65 Bohr mag/cell

     iteration #  5     ecut=    30.00 Ry     beta=0.30
     Davidson diagonalization with overlap
     ethr =  2.53E-10,  avg # of iterations =  2.0

     total cpu time spent up to now is      151.6 secs

     total energy              =    -941.93418013 Ry
     Harris-Foulkes estimate   =    -941.93418012 Ry
     estimated scf accuracy    <       0.00000004 Ry

     total magnetization       =     0.00 Bohr mag/cell
     absolute magnetization    =    12.65 Bohr mag/cell

     iteration #  6     ecut=    30.00 Ry     beta=0.30
     Davidson diagonalization with overlap
     ethr =  2.87E-11,  avg # of iterations =  2.0

     total cpu time spent up to now is      176.7 secs

     End of self-consistent calculation
 --- enter write_ns ---
 LDA+U parameters:
U( 1)     =  0.00000000
alpha( 1) =  0.00000000
U( 2)     =  0.00000000
alpha( 2) =  0.00000000
U( 3)     =  0.00000000
alpha( 3) =  0.15000000
U( 4)     =  0.00000000
alpha( 4) =  0.00000000
atom    1   Tr[ns(na)] (up, down, total) =   4.96212  3.72937  8.69149
   spin  1
    eigenvalues: 
  0.985  0.985  0.997  0.997  0.997
    eigenvectors:
  1.000  0.000  0.000  0.000  0.000
  0.000  0.000  0.002  0.498  0.500
  0.000  0.000  0.002  0.498  0.500
  0.000  1.000  0.000  0.000  0.000
  0.000  0.000  0.996  0.004  0.000
    occupations:
  0.985  0.000  0.000  0.000  0.000
  0.000  0.997  0.000  0.000  0.000
  0.000  0.000  0.997  0.000  0.000
  0.000  0.000  0.000  0.985  0.000
  0.000  0.000  0.000  0.000  0.997
   spin  2
    eigenvalues: 
  0.370  0.372  0.996  0.996  0.996
    eigenvectors:
  0.000  1.000  0.000  0.000  0.000
  0.000  0.000  0.165  0.500  0.335
  0.000  0.000  0.165  0.500  0.335
  1.000  0.000  0.000  0.000  0.000
  0.000  0.000  0.670  0.000  0.330
    occupations:
  0.372  0.000  0.000  0.000  0.001
  0.000  0.996  0.000  0.001  0.000
  0.000  0.000  0.996 -0.001  0.000
  0.000  0.001 -0.001  0.370  0.000
  0.001  0.000  0.000  0.000  0.996
atomic mag. moment =     1.232747
atom    2   Tr[ns(na)] (up, down, total) =   4.96212  3.72937  8.69149
   spin  1
    eigenvalues: 
  0.985  0.985  0.997  0.997  0.997
    eigenvectors:
  0.250  0.750  0.000  0.000  0.000
  0.000  0.000  0.996  0.004  0.000
  0.000  0.000  0.002  0.498  0.500
  0.750  0.250  0.000  0.000  0.000
  0.000  0.000  0.002  0.498  0.500
    occupations:
  0.985  0.000  0.000  0.000  0.000
  0.000  0.997  0.000  0.000  0.000
  0.000  0.000  0.997  0.000  0.000
  0.000  0.000  0.000  0.985  0.000
  0.000  0.000  0.000  0.000  0.997
   spin  2
    eigenvalues: 
  0.370  0.372  0.996  0.996  0.996
    eigenvectors:
  0.750  0.250  0.000  0.000  0.000
  0.000  0.000  0.670  0.000  0.330
  0.000  0.000  0.165  0.500  0.335
  0.250  0.750  0.000  0.000  0.000
  0.000  0.000  0.165  0.500  0.335
    occupations:
  0.371  0.000  0.000  0.000  0.001
  0.000  0.996  0.000  0.001  0.000
  0.000  0.000  0.996 -0.001  0.000
  0.000  0.001 -0.001  0.371  0.000
  0.001  0.000  0.000  0.000  0.996
atomic mag. moment =     1.232747
atom    3   Tr[ns(na)] (up, down, total) =   4.96212  3.72937  8.69149
   spin  1
    eigenvalues: 
  0.985  0.985  0.997  0.997  0.997
    eigenvectors:
  0.250  0.750  0.000  0.000  0.000
  0.000  0.000  0.002  0.498  0.500
  0.000  0.000  0.996  0.004  0.000
  0.750  0.250  0.000  0.000  0.000
  0.000  0.000  0.002  0.498  0.500
    occupations:
  0.985  0.000  0.000  0.000  0.000
  0.000  0.997  0.000  0.000  0.000
  0.000  0.000  0.997  0.000  0.000
  0.000  0.000  0.000  0.985  0.000
  0.000  0.000  0.000  0.000  0.997
   spin  2
    eigenvalues: 
  0.370  0.372  0.996  0.996  0.996
    eigenvectors:
  0.750  0.250  0.000  0.000  0.000
  0.000  0.000  0.165  0.500  0.335
  0.000  0.000  0.670  0.000  0.330
  0.250  0.750  0.000  0.000  0.000
  0.000  0.000  0.165  0.500  0.335
    occupations:
  0.371  0.000  0.000  0.000  0.001
  0.000  0.996  0.000  0.001  0.000
  0.000  0.000  0.996 -0.001  0.000
  0.000  0.001 -0.001  0.371  0.000
  0.001  0.000  0.000  0.000  0.996
atomic mag. moment =     1.232747
atom    4   Tr[ns(na)] (up, down, total) =   4.96211  3.72836  8.69047
   spin  1
    eigenvalues: 
  0.985  0.985  0.997  0.997  0.997
    eigenvectors:
  0.214  0.786  0.000  0.000  0.000
  0.000  0.000  0.333  0.169  0.498
  0.000  0.000  0.333  0.165  0.502
  0.786  0.214  0.000  0.000  0.000
  0.000  0.000  0.333  0.667  0.000
    occupations:
  0.985  0.000  0.000  0.000  0.000
  0.000  0.997  0.000  0.000  0.000
  0.000  0.000  0.997  0.000  0.000
  0.000  0.000  0.000  0.985  0.000
  0.000  0.000  0.000  0.000  0.997
   spin  2
    eigenvalues: 
  0.370  0.370  0.996  0.996  0.996
    eigenvectors:
  0.045  0.955  0.000  0.000  0.000
  0.000  0.000  0.140  0.527  0.333
  0.000  0.000  0.195  0.472  0.333
  0.955  0.045  0.000  0.000  0.000
  0.000  0.000  0.665  0.002  0.333
    occupations:
  0.370  0.000  0.000  0.000  0.001
  0.000  0.996  0.000  0.001  0.000
  0.000  0.000  0.996 -0.001  0.000
  0.000  0.001 -0.001  0.370  0.000
  0.001  0.000  0.000  0.000  0.996
atomic mag. moment =     1.233751
atom    5   Tr[ns(na)] (up, down, total) =   3.72836  4.96211  8.69047
   spin  1
    eigenvalues: 
  0.370  0.370  0.996  0.996  0.996
    eigenvectors:
  0.341  0.659  0.000  0.000  0.000
  0.000  0.000  0.142  0.524  0.333
  0.000  0.000  0.192  0.474  0.333
  0.659  0.341  0.000  0.000  0.000
  0.000  0.000  0.665  0.001  0.333
    occupations:
  0.370  0.000  0.000  0.000  0.001
  0.000  0.996  0.000  0.001  0.000
  0.000  0.000  0.996 -0.001  0.000
  0.000  0.001 -0.001  0.370  0.000
  0.001  0.000  0.000  0.000  0.996
   spin  2
    eigenvalues: 
  0.985  0.985  0.997  0.997  0.997
    eigenvectors:
  0.277  0.723  0.000  0.000  0.000
  0.000  0.000  0.333  0.121  0.546
  0.000  0.000  0.333  0.217  0.449
  0.723  0.277  0.000  0.000  0.000
  0.000  0.000  0.333  0.662  0.005
    occupations:
  0.985  0.000  0.000  0.000  0.000
  0.000  0.997  0.000  0.000  0.000
  0.000  0.000  0.997  0.000  0.000
  0.000  0.000  0.000  0.985  0.000
  0.000  0.000  0.000  0.000  0.997
atomic mag. moment =    -1.233752
atom    6   Tr[ns(na)] (up, down, total) =   3.72938  4.96212  8.69150
   spin  1
    eigenvalues: 
  0.370  0.372  0.996  0.996  0.996
    eigenvectors:
  0.750  0.250  0.000  0.000  0.000
  0.000  0.000  0.165  0.500  0.335
  0.000  0.000  0.669  0.000  0.331
  0.250  0.750  0.000  0.000  0.000
  0.000  0.000  0.165  0.500  0.335
    occupations:
  0.371  0.000  0.000  0.000  0.001
  0.000  0.996  0.000  0.001  0.000
  0.000  0.000  0.996 -0.001  0.000
  0.000  0.001 -0.001  0.371  0.000
  0.001  0.000  0.000  0.000  0.996
   spin  2
    eigenvalues: 
  0.985  0.985  0.997  0.997  0.997
    eigenvectors:
  0.250  0.750  0.000  0.000  0.000
  0.000  0.000  0.002  0.498  0.500
  0.000  0.000  0.996  0.004  0.000
  0.750  0.250  0.000  0.000  0.000
  0.000  0.000  0.002  0.498  0.500
    occupations:
  0.985  0.000  0.000  0.000  0.000
  0.000  0.997  0.000  0.000  0.000
  0.000  0.000  0.997  0.000  0.000
  0.000  0.000  0.000  0.985  0.000
  0.000  0.000  0.000  0.000  0.997
atomic mag. moment =    -1.232740
atom    7   Tr[ns(na)] (up, down, total) =   3.72938  4.96212  8.69150
   spin  1
    eigenvalues: 
  0.370  0.372  0.996  0.996  0.996
    eigenvectors:
  0.750  0.250  0.000  0.000  0.000
  0.000  0.000  0.669  0.000  0.331
  0.000  0.000  0.165  0.500  0.335
  0.250  0.750  0.000  0.000  0.000
  0.000  0.000  0.165  0.500  0.335
    occupations:
  0.371  0.000  0.000  0.000  0.001
  0.000  0.996  0.000  0.001  0.000
  0.000  0.000  0.996 -0.001  0.000
  0.000  0.001 -0.001  0.371  0.000
  0.001  0.000  0.000  0.000  0.996
   spin  2
    eigenvalues: 
  0.985  0.985  0.997  0.997  0.997
    eigenvectors:
  0.250  0.750  0.000  0.000  0.000
  0.000  0.000  0.996  0.004  0.000
  0.000  0.000  0.002  0.498  0.500
  0.750  0.250  0.000  0.000  0.000
  0.000  0.000  0.002  0.498  0.500
    occupations:
  0.985  0.000  0.000  0.000  0.000
  0.000  0.997  0.000  0.000  0.000
  0.000  0.000  0.997  0.000  0.000
  0.000  0.000  0.000  0.985  0.000
  0.000  0.000  0.000  0.000  0.997
atomic mag. moment =    -1.232740
atom    8   Tr[ns(na)] (up, down, total) =   3.72938  4.96212  8.69150
   spin  1
    eigenvalues: 
  0.370  0.372  0.996  0.996  0.996
    eigenvectors:
  0.000  1.000  0.000  0.000  0.000
  0.000  0.000  0.165  0.500  0.335
  0.000  0.000  0.165  0.500  0.335
  1.000  0.000  0.000  0.000  0.000
  0.000  0.000  0.669  0.000  0.331
    occupations:
  0.372  0.000  0.000  0.000  0.001
  0.000  0.996  0.000  0.001  0.000
  0.000  0.000  0.996 -0.001  0.000
  0.000  0.001 -0.001  0.370  0.000
  0.001  0.000  0.000  0.000  0.996
   spin  2
    eigenvalues: 
  0.985  0.985  0.997  0.997  0.997
    eigenvectors:
  1.000  0.000  0.000  0.000  0.000
  0.000  0.000  0.002  0.498  0.500
  0.000  0.000  0.002  0.498  0.500
  0.000  1.000  0.000  0.000  0.000
  0.000  0.000  0.996  0.004  0.000
    occupations:
  0.985  0.000  0.000  0.000  0.000
  0.000  0.997  0.000  0.000  0.000
  0.000  0.000  0.997  0.000  0.000
  0.000  0.000  0.000  0.985  0.000
  0.000  0.000  0.000  0.000  0.997
atomic mag. moment =    -1.232740
atom    9   Tr[ns(na)] (up, down, total) =   2.81139  2.81139  5.62278
   spin  1
    eigenvalues: 
  0.937  0.937  0.937
    eigenvectors:
  0.462  0.205  0.333
  0.535  0.131  0.333
  0.003  0.664  0.333
    occupations:
  0.937  0.000  0.000
  0.000  0.937  0.000
  0.000  0.000  0.937
   spin  2
    eigenvalues: 
  0.937  0.937  0.937
    eigenvectors:
  0.416  0.251  0.333
  0.572  0.095  0.333
  0.012  0.654  0.333
    occupations:
  0.937  0.000  0.000
  0.000  0.937  0.000
  0.000  0.000  0.937
atomic mag. moment =    -0.000002
atom   10   Tr[ns(na)] (up, down, total) =   2.81406  2.81406  5.62812
   spin  1
    eigenvalues: 
  0.938  0.938  0.938
    eigenvectors:
  0.610  0.000  0.390
  0.195  0.500  0.305
  0.195  0.500  0.305
    occupations:
  0.938  0.000  0.000
  0.000  0.938  0.000
  0.000  0.000  0.938
   spin  2
    eigenvalues: 
  0.938  0.938  0.938
    eigenvectors:
  0.614  0.000  0.386
  0.193  0.500  0.307
  0.193  0.500  0.307
    occupations:
  0.938  0.000  0.000
  0.000  0.938  0.000
  0.000  0.000  0.938
atomic mag. moment =    -0.000001
atom   11   Tr[ns(na)] (up, down, total) =   2.81406  2.81406  5.62812
   spin  1
    eigenvalues: 
  0.938  0.938  0.938
    eigenvectors:
  0.195  0.500  0.305
  0.610  0.000  0.390
  0.195  0.500  0.305
    occupations:
  0.938  0.000  0.000
  0.000  0.938  0.000
  0.000  0.000  0.938
   spin  2
    eigenvalues: 
  0.938  0.938  0.938
    eigenvectors:
  0.193  0.500  0.307
  0.614  0.000  0.386
  0.193  0.500  0.307
    occupations:
  0.938  0.000  0.000
  0.000  0.938  0.000
  0.000  0.000  0.938
atomic mag. moment =    -0.000001
atom   12   Tr[ns(na)] (up, down, total) =   2.81406  2.81406  5.62812
   spin  1
    eigenvalues: 
  0.938  0.938  0.938
    eigenvectors:
  0.195  0.500  0.305
  0.195  0.500  0.305
  0.610  0.000  0.390
    occupations:
  0.938  0.000  0.000
  0.000  0.938  0.000
  0.000  0.000  0.938
   spin  2
    eigenvalues: 
  0.938  0.938  0.938
    eigenvectors:
  0.193  0.500  0.307
  0.193  0.500  0.307
  0.614  0.000  0.386
    occupations:
  0.938  0.000  0.000
  0.000  0.938  0.000
  0.000  0.000  0.938
atomic mag. moment =    -0.000001
atom   13   Tr[ns(na)] (up, down, total) =   2.81406  2.81406  5.62811
   spin  1
    eigenvalues: 
  0.938  0.938  0.938
    eigenvectors:
  0.500  0.118  0.382
  0.000  0.764  0.236
  0.500  0.118  0.382
    occupations:
  0.938  0.000  0.000
  0.000  0.938  0.000
  0.000  0.000  0.938
   spin  2
    eigenvalues: 
  0.938  0.938  0.938
    eigenvectors:
  0.500  0.117  0.383
  0.000  0.766  0.234
  0.500  0.117  0.383
    occupations:
  0.938  0.000  0.000
  0.000  0.938  0.000
  0.000  0.000  0.938
atomic mag. moment =    -0.000001
atom   14   Tr[ns(na)] (up, down, total) =   2.81406  2.81406  5.62811
   spin  1
    eigenvalues: 
  0.938  0.938  0.938
    eigenvectors:
  0.500  0.118  0.382
  0.500  0.118  0.382
  0.000  0.764  0.236
    occupations:
  0.938  0.000  0.000
  0.000  0.938  0.000
  0.000  0.000  0.938
   spin  2
    eigenvalues: 
  0.938  0.938  0.938
    eigenvectors:
  0.500  0.117  0.383
  0.500  0.117  0.383
  0.000  0.766  0.234
    occupations:
  0.938  0.000  0.000
  0.000  0.938  0.000
  0.000  0.000  0.938
atomic mag. moment =    -0.000001
atom   15   Tr[ns(na)] (up, down, total) =   2.81406  2.81406  5.62811
   spin  1
    eigenvalues: 
  0.938  0.938  0.938
    eigenvectors:
  0.000  0.764  0.236
  0.500  0.118  0.382
  0.500  0.118  0.382
    occupations:
  0.938  0.000  0.000
  0.000  0.938  0.000
  0.000  0.000  0.938
   spin  2
    eigenvalues: 
  0.938  0.938  0.938
    eigenvectors:
  0.000  0.766  0.234
  0.500  0.117  0.383
  0.500  0.117  0.383
    occupations:
  0.938  0.000  0.000
  0.000  0.938  0.000
  0.000  0.000  0.938
atomic mag. moment =    -0.000001
atom   16   Tr[ns(na)] (up, down, total) =   2.81401  2.81401  5.62803
   spin  1
    eigenvalues: 
  0.938  0.938  0.938
    eigenvectors:
  0.417  0.249  0.333
  0.571  0.096  0.333
  0.012  0.655  0.333
    occupations:
  0.938  0.000  0.000
  0.000  0.938  0.000
  0.000  0.000  0.938
   spin  2
    eigenvalues: 
  0.938  0.938  0.938
    eigenvectors:
  0.408  0.259  0.333
  0.578  0.089  0.333
  0.015  0.652  0.333
    occupations:
  0.938  0.000  0.000
  0.000  0.938  0.000
  0.000  0.000  0.938
atomic mag. moment =    -0.000002
N of occupied +U levels = 114.5493765
 --- exit write_ns ---

 ------ SPIN UP ------------


          k = 0.0000 0.0000 0.0000 (  2733 PWs)   bands (ev):

    -8.0451  -6.6752  -6.6416  -6.6415  -6.6415  -6.5849  -6.5735  -6.5735
     4.0477   4.0696   4.0696   4.0710   5.3727   5.3728   5.3728   6.5241
     6.5241   6.5322   6.5488   6.5488   6.5669   6.5669   6.5872   7.9940
     7.9949   7.9949   8.0177   8.0177   8.0186   8.7980   8.7980   8.7980
     9.3128   9.3128   9.3150   9.5135   9.5135   9.6559   9.8472   9.8472
     9.8946   9.8950   9.8950  10.1807  10.1807  10.1812  10.4523  10.4525
    10.4525  10.5613  10.5614  10.5614  10.8911  10.8911  11.0172  11.0172
    11.0189  11.1587  11.2432  11.2432  11.2439  11.3638  11.3648  11.3648
    13.5632  13.5632  13.6236  13.6239  13.6239  13.7088  13.7088  13.7097
    13.7701  17.8001  17.8044  17.8056  17.8056

          k = 0.2500-0.2500-0.2500 (  2764 PWs)   bands (ev):

    -7.4173  -7.4007  -6.6558  -6.6188  -6.6164  -6.6136  -6.6103  -6.6100
     5.0731   5.0805   5.0848   5.0923   5.1274   5.1294   6.1156   6.1361
     6.3309   6.3459   6.3982   6.4164   6.4748   6.5027   6.8476   6.8638
     7.0288   7.0421   7.3436   7.3517   7.5014   7.5138   7.6635   7.6824
     9.5902   9.5909   9.7823   9.7824   9.8533   9.8549   9.9829   9.9833
    10.1222  10.1238  10.1732  10.1736  10.4923  10.4950  10.6115  10.6144
    10.6418  10.6433  10.8401  10.8417  10.9403  10.9422  11.2216  11.2237
    11.2344  11.2364  11.2787  11.2809  11.3092  11.3106  11.4204  11.4241
    13.0607  13.0616  13.0650  13.0655  13.0724  13.0724  13.0850  13.0854
    16.4981  16.5014  19.6610  19.6611  19.7213

          k = 0.0000 0.0000-0.5000 (  2762 PWs)   bands (ev):

    -7.2795  -7.2643  -6.7955  -6.7696  -6.7686  -6.7686  -6.4767  -6.4651
     5.0333   5.0434   5.0594   5.0711   5.7880   5.8097   6.1236   6.1271
     6.1491   6.1529   6.4183   6.4374   6.6486   6.6671   6.6826   6.7012
     6.7414   6.7448   6.7483   6.7914   8.1753   8.1853   8.1940   8.2041
     9.2112   9.2121   9.8980   9.8993   9.9801   9.9809  10.0032  10.0032
    10.0174  10.0212  10.1311  10.1315  10.3198  10.3203  10.4513  10.4530
    10.4829  10.4864  10.5568  10.5571  10.8926  10.8928  10.9784  10.9801
    11.1317  11.1326  11.2146  11.2164  11.3136  11.3150  11.3294  11.3303
    12.4755  12.4763  12.7337  12.7340  13.5343  13.5356  13.6361  13.6371
    17.6863  17.6867  19.2675  19.2686  19.2711

          k =-0.2500-0.2500-0.2500 (  2764 PWs)   bands (ev):

    -7.4185  -7.3996  -6.6579  -6.6250  -6.6250  -6.6093  -6.6038  -6.6038
     5.0303   5.0485   5.0485   5.1359   5.1626   5.1626   6.1051   6.1497
     6.2626   6.2626   6.2958   6.7156   6.7156   6.7442   6.7532   6.7566
     6.7566   6.9714   6.9714   7.4805   7.4962   7.4962   7.9054   7.9054
     9.4449   9.4451   9.4451   9.6252   9.6252  10.0689  10.0689  10.0693
    10.0849  10.4337  10.4337  10.4345  10.4666  10.4670  10.4670  10.7073
    10.7073  10.8047  10.8047  10.8101  10.8556  11.0337  11.0371  11.0371
    11.2232  11.2232  11.2240  11.2944  11.2944  11.3823  11.3834  11.3834
    13.0605  13.0605  13.0606  13.0807  13.0807  13.0901  13.0904  13.0904
    16.4229  16.5796  19.6393  19.6395  19.6395

 ------ SPIN DOWN ----------


          k = 0.0000 0.0000 0.0000 (  2733 PWs)   bands (ev):

    -8.0451  -6.6752  -6.6416  -6.6415  -6.6415  -6.5849  -6.5735  -6.5735
     4.0477   4.0696   4.0696   4.0710   5.3727   5.3728   5.3728   6.5241
     6.5241   6.5322   6.5488   6.5488   6.5668   6.5668   6.5872   7.9940
     7.9949   7.9949   8.0177   8.0177   8.0186   8.7980   8.7980   8.7980
     9.3128   9.3128   9.3150   9.5134   9.5134   9.6559   9.8472   9.8472
     9.8945   9.8950   9.8950  10.1807  10.1807  10.1812  10.4523  10.4525
    10.4525  10.5613  10.5614  10.5614  10.8911  10.8911  11.0173  11.0173
    11.0189  11.1587  11.2432  11.2432  11.2440  11.3638  11.3648  11.3648
    13.5632  13.5632  13.6236  13.6239  13.6239  13.7088  13.7088  13.7097
    13.7701  17.8001  17.8044  17.8056  17.8056

          k = 0.2500-0.2500-0.2500 (  2764 PWs)   bands (ev):

    -7.4173  -7.4007  -6.6558  -6.6188  -6.6164  -6.6136  -6.6103  -6.6100
     5.0731   5.0805   5.0848   5.0923   5.1274   5.1294   6.1156   6.1361
     6.3309   6.3459   6.3982   6.4164   6.4747   6.5027   6.8476   6.8637
     7.0288   7.0421   7.3436   7.3517   7.5014   7.5138   7.6635   7.6824
     9.5902   9.5909   9.7822   9.7824   9.8533   9.8548   9.9829   9.9833
    10.1222  10.1238  10.1732  10.1735  10.4923  10.4949  10.6116  10.6144
    10.6418  10.6434  10.8401  10.8417  10.9403  10.9422  11.2217  11.2237
    11.2344  11.2364  11.2787  11.2809  11.3092  11.3107  11.4204  11.4241
    13.0607  13.0616  13.0650  13.0655  13.0724  13.0725  13.0850  13.0855
    16.4981  16.5014  19.6610  19.6611  19.7213

          k = 0.0000 0.0000-0.5000 (  2762 PWs)   bands (ev):

    -7.2795  -7.2643  -6.7955  -6.7696  -6.7686  -6.7686  -6.4767  -6.4651
     5.0333   5.0434   5.0593   5.0711   5.7880   5.8097   6.1235   6.1271
     6.1491   6.1529   6.4183   6.4374   6.6486   6.6671   6.6826   6.7012
     6.7414   6.7448   6.7483   6.7914   8.1753   8.1853   8.1940   8.2041
     9.2112   9.2120   9.8980   9.8992   9.9800   9.9809  10.0032  10.0032
    10.0174  10.0212  10.1310  10.1315  10.3198  10.3202  10.4512  10.4530
    10.4829  10.4864  10.5568  10.5570  10.8926  10.8928  10.9784  10.9802
    11.1317  11.1326  11.2146  11.2164  11.3136  11.3151  11.3294  11.3303
    12.4755  12.4763  12.7337  12.7341  13.5343  13.5356  13.6361  13.6371
    17.6863  17.6867  19.2675  19.2686  19.2711

          k =-0.2500-0.2500-0.2500 (  2764 PWs)   bands (ev):

    -7.4185  -7.3996  -6.6579  -6.6250  -6.6250  -6.6093  -6.6038  -6.6038
     5.0303   5.0485   5.0485   5.1359   5.1626   5.1626   6.1051   6.1497
     6.2626   6.2626   6.2958   6.7156   6.7156   6.7442   6.7532   6.7566
     6.7566   6.9714   6.9714   7.4805   7.4962   7.4962   7.9054   7.9054
     9.4449   9.4451   9.4451   9.6252   9.6252  10.0688  10.0688  10.0693
    10.0848  10.4338  10.4338  10.4345  10.4665  10.4670  10.4670  10.7073
    10.7073  10.8047  10.8047  10.8101  10.8556  11.0336  11.0371  11.0371
    11.2232  11.2232  11.2240  11.2943  11.2943  11.3823  11.3834  11.3834
    13.0605  13.0605  13.0607  13.0807  13.0807  13.0901  13.0905  13.0905
    16.4229  16.5796  19.6393  19.6395  19.6395

     the Fermi energy is    11.9496 ev

!    total energy              =    -941.93418013 Ry
     Harris-Foulkes estimate   =    -941.93418013 Ry
     estimated scf accuracy    <          8.6E-09 Ry

     The total energy is the sum of the following terms:

     one-electron contribution =     -56.24585631 Ry
     hartree contribution      =     175.69317137 Ry
     xc contribution           =    -297.58607937 Ry
     ewald contribution        =    -763.85740583 Ry
     Hubbard energy            =       0.06199002 Ry
     smearing contrib. (-TS)   =       0.00000000 Ry

     total magnetization       =     0.00 Bohr mag/cell
     absolute magnetization    =    12.65 Bohr mag/cell

     convergence has been achieved in   6 iterations

     Writing output data file nio.save
 
     init_run     :     13.30s CPU     14.23s WALL (       1 calls)
     electrons    :    153.80s CPU    162.31s WALL (       1 calls)

     Called by init_run:
     wfcinit      :      0.18s CPU      0.23s WALL (       1 calls)
     potinit      :      1.18s CPU      1.37s WALL (       1 calls)

     Called by electrons:
     c_bands      :     29.99s CPU     31.65s WALL (       6 calls)
     sum_band     :     61.17s CPU     62.34s WALL (       6 calls)
     v_of_rho     :      6.94s CPU      7.76s WALL (       7 calls)
     newd         :     63.69s CPU     68.91s WALL (       7 calls)
     mix_rho      :      1.00s CPU      1.11s WALL (       6 calls)

     Called by c_bands:
     init_us_2    :      0.28s CPU      0.31s WALL (      26 calls)
     cegterg      :     28.74s CPU     30.21s WALL (      12 calls)

     Called by *egterg:
     h_psi        :     20.08s CPU     20.96s WALL (      64 calls)
     s_psi        :      1.76s CPU      1.77s WALL (      66 calls)
     g_psi        :      0.09s CPU      0.10s WALL (      52 calls)
     cdiaghg      :      2.00s CPU      2.02s WALL (      62 calls)

     Called by h_psi:
     add_vuspsi   :      1.66s CPU      1.68s WALL (      64 calls)

     General routines
     calbec       :      2.84s CPU      2.85s WALL (     154 calls)
     fft          :      6.04s CPU      6.70s WALL (     205 calls)
     ffts         :      0.06s CPU      0.08s WALL (      26 calls)
     fftw         :     10.38s CPU     11.45s WALL (    5948 calls)
     interpolate  :      0.93s CPU      1.19s WALL (      26 calls)
     davcio       :      0.00s CPU      0.40s WALL (      76 calls)
 
     Parallel routines
     fft_scatter  :      2.98s CPU      3.44s WALL (    6179 calls)
     EXX routines
 
     PWSCF        :  2m47.42s CPU     2m56.99s WALL

 
   This run was terminated on:  12:20: 6  17Jun2012            

=------------------------------------------------------------------------------=
   JOB DONE.
=------------------------------------------------------------------------------=
