
     Program PWSCF v.4.3.2      starts on 23Jun2014 at  3:57:45 

     This program is part of the open-source Quantum ESPRESSO suite
     for quantum simulation of materials; please cite
         "P. Giannozzi et al., J. Phys.:Condens. Matter 21 395502 (2009);
          URL http://www.quantum-espresso.org", 
     in publications or presentations arising from this work. More details at
     http://www.quantum-espresso.org/wiki/index.php/Citing_Quantum-ESPRESSO

     Current dimensions of program PWSCF are:
     Max number of different atomic species (ntypx) = 10
     Max number of k-points (npk) =  40000
     Max angular momentum in pseudopotentials (lmaxx) =  3
     Waiting for input...
     Reading input from stdin
Warning: card   &IONS ignored
Warning: card   / ignored
Warning: card   &CELL ignored
Warning: card   / ignored
 
     G-vector sticks info
     --------------------
     sticks:   dense  smooth     PW     G-vecs:    dense   smooth      PW
     Sum         685     685    211                12039    12039    2109
 


     bravais-lattice index     =            2
     lattice parameter (alat)  =      10.5900  a.u.
     unit-cell volume          =     296.9096 (a.u.)^3
     number of atoms/cell      =            2
     number of atomic types    =            2
     number of electrons       =         8.00
     number of Kohn-Sham states=            8
     kinetic-energy cutoff     =      45.0000  Ry
     charge density cutoff     =     180.0000  Ry
     convergence threshold     =      1.0E-10
     mixing beta               =       0.5000
     number of iterations used =            8  plain     mixing
     Exchange-correlation      =  SLA  PZ   NOGX NOGC ( 1 1 0 0 0)
     EXX-fraction              =        0.00

     celldm(1)=  10.589970  celldm(2)=   0.000000  celldm(3)=   0.000000
     celldm(4)=   0.000000  celldm(5)=   0.000000  celldm(6)=   0.000000

     crystal axes: (cart. coord. in units of alat)
               a(1) = (  -0.500000   0.000000   0.500000 )  
               a(2) = (   0.000000   0.500000   0.500000 )  
               a(3) = (  -0.500000   0.500000   0.000000 )  

     reciprocal axes: (cart. coord. in units 2 pi/alat)
               b(1) = ( -1.000000 -1.000000  1.000000 )  
               b(2) = (  1.000000  1.000000  1.000000 )  
               b(3) = ( -1.000000  1.000000 -1.000000 )  


     PseudoPot. # 1 for Al read from file:
     ../../pseudo/Al.pz-vbc.UPF
     MD5 check sum: 614279c88ff8d45c90147292d03ed420
     Pseudo is Norm-conserving, Zval =  3.0
     Generated by new atomic code, or converted to UPF format
     Using radial grid of  171 points,  2 beta functions with: 
                l(1) =   0
                l(2) =   1

     PseudoPot. # 2 for As read from file:
     ../../pseudo/As.pz-bhs.UPF
     MD5 check sum: 451cd3365afcfc94d28b1934951c34a8
     Pseudo is Norm-conserving, Zval =  5.0
     Generated by new atomic code, or converted to UPF format
     Using radial grid of  525 points,  2 beta functions with: 
                l(1) =   0
                l(2) =   1

     atomic species   valence    mass     pseudopotential
        Al             3.00    26.98000     Al( 1.00)
        As             5.00    74.92000     As( 1.00)

     24 Sym.Ops. (no inversion)


   Cartesian axes

     site n.     atom                  positions (alat units)
         1           Al  tau(   1) = (   0.0000000   0.0000000   0.0000000  )
         2           As  tau(   2) = (   0.2500000   0.2500000   0.2500000  )

     number of k points=    19
                       cart. coord. in units 2pi/alat
        k(    1) = (  -0.1000000   0.1000000   0.1000000), wk =   0.0320000
        k(    2) = (  -0.3000000   0.3000000  -0.1000000), wk =   0.0960000
        k(    3) = (   0.5000000  -0.5000000   0.7000000), wk =   0.0960000
        k(    4) = (   0.3000000  -0.3000000   0.5000000), wk =   0.0960000
        k(    5) = (   0.1000000  -0.1000000   0.3000000), wk =   0.0960000
        k(    6) = (  -0.1000000   0.5000000   0.1000000), wk =   0.0960000
        k(    7) = (   0.7000000  -0.3000000   0.9000000), wk =   0.1920000
        k(    8) = (   0.5000000  -0.1000000   0.7000000), wk =   0.1920000
        k(    9) = (   0.3000000   0.1000000   0.5000000), wk =   0.1920000
        k(   10) = (  -0.1000000  -1.1000000   0.1000000), wk =   0.0960000
        k(   11) = (  -0.3000000  -0.9000000  -0.1000000), wk =   0.1920000
        k(   12) = (  -0.5000000  -0.7000000  -0.3000000), wk =   0.0960000
        k(   13) = (  -0.1000000  -0.7000000   0.1000000), wk =   0.0960000
        k(   14) = (  -0.3000000   0.3000000   0.3000000), wk =   0.0320000
        k(   15) = (   0.5000000  -0.5000000   1.1000000), wk =   0.0960000
        k(   16) = (   0.3000000  -0.3000000   0.9000000), wk =   0.0960000
        k(   17) = (  -0.3000000  -1.3000000   0.3000000), wk =   0.0960000
        k(   18) = (  -0.5000000  -1.1000000   0.1000000), wk =   0.0960000
        k(   19) = (   0.5000000  -0.5000000  -0.5000000), wk =   0.0160000

     Dense  grid:    12039 G-vectors     FFT dimensions: (  32,  32,  32)

     Largest allocated arrays     est. size (Mb)     dimensions
        Kohn-Sham Wavefunctions         0.19 Mb     (   1524,    8)
        NL pseudopotentials             0.19 Mb     (   1524,    8)
        Each V/rho on FFT grid          0.50 Mb     (  32768)
        Each G-vector array             0.09 Mb     (  12039)
        G-vector shells                 0.00 Mb     (    171)
     Largest temporary arrays     est. size (Mb)     dimensions
        Auxiliary wavefunctions         0.74 Mb     (   1524,   32)
        Each subspace H/S matrix        0.02 Mb     (  32,  32)
        Each <psi_i|beta_j> matrix      0.00 Mb     (      8,    8)
        Arrays for rho mixing           4.00 Mb     (  32768,   8)

     Initial potential from superposition of free atoms

     starting charge    7.99774, renormalised to    8.00000
     Starting wfc are    8 atomic wfcs

     total cpu time spent up to now is        0.4 secs

     per-process dynamical memory:     7.0 Mb

     Self-consistent Calculation

     iteration #  1     ecut=    45.00 Ry     beta=0.50
     Davidson diagonalization with overlap
     ethr =  1.00E-02,  avg # of iterations =  4.1

     Threshold (ethr) on eigenvalues was too large:
     Diagonalizing with lowered threshold

     Davidson diagonalization with overlap
     ethr =  8.76E-04,  avg # of iterations =  1.0

     total cpu time spent up to now is        2.1 secs

     total energy              =     -17.01360835 Ry
     Harris-Foulkes estimate   =     -17.03895424 Ry
     estimated scf accuracy    <       0.07019902 Ry

     iteration #  2     ecut=    45.00 Ry     beta=0.50
     Davidson diagonalization with overlap
     ethr =  8.77E-04,  avg # of iterations =  1.0

     total cpu time spent up to now is        2.7 secs

     total energy              =     -17.01935755 Ry
     Harris-Foulkes estimate   =     -17.02019754 Ry
     estimated scf accuracy    <       0.00649039 Ry

     iteration #  3     ecut=    45.00 Ry     beta=0.50
     Davidson diagonalization with overlap
     ethr =  8.11E-05,  avg # of iterations =  1.8

     total cpu time spent up to now is        3.4 secs

     total energy              =     -17.01966613 Ry
     Harris-Foulkes estimate   =     -17.01973849 Ry
     estimated scf accuracy    <       0.00082502 Ry

     iteration #  4     ecut=    45.00 Ry     beta=0.50
     Davidson diagonalization with overlap
     ethr =  1.03E-05,  avg # of iterations =  2.7

     total cpu time spent up to now is        4.1 secs

     total energy              =     -17.01974779 Ry
     Harris-Foulkes estimate   =     -17.01975629 Ry
     estimated scf accuracy    <       0.00001956 Ry

     iteration #  5     ecut=    45.00 Ry     beta=0.50
     Davidson diagonalization with overlap
     ethr =  2.45E-07,  avg # of iterations =  2.2

     total cpu time spent up to now is        4.9 secs

     total energy              =     -17.01974960 Ry
     Harris-Foulkes estimate   =     -17.01975448 Ry
     estimated scf accuracy    <       0.00000913 Ry

     iteration #  6     ecut=    45.00 Ry     beta=0.50
     Davidson diagonalization with overlap
     ethr =  1.14E-07,  avg # of iterations =  1.2

     total cpu time spent up to now is        5.5 secs

     total energy              =     -17.01975077 Ry
     Harris-Foulkes estimate   =     -17.01975078 Ry
     estimated scf accuracy    <       0.00000002 Ry

     iteration #  7     ecut=    45.00 Ry     beta=0.50
     Davidson diagonalization with overlap
     ethr =  2.22E-10,  avg # of iterations =  3.1

     total cpu time spent up to now is        6.5 secs

     total energy              =     -17.01975084 Ry
     Harris-Foulkes estimate   =     -17.01975085 Ry
     estimated scf accuracy    <       0.00000003 Ry

     iteration #  8     ecut=    45.00 Ry     beta=0.50
     Davidson diagonalization with overlap
     ethr =  2.22E-10,  avg # of iterations =  2.0

     total cpu time spent up to now is        7.2 secs

     total energy              =     -17.01975084 Ry
     Harris-Foulkes estimate   =     -17.01975084 Ry
     estimated scf accuracy    <          1.4E-09 Ry

     iteration #  9     ecut=    45.00 Ry     beta=0.50
     Davidson diagonalization with overlap
     ethr =  1.75E-11,  avg # of iterations =  1.5

     total cpu time spent up to now is        7.9 secs

     total energy              =     -17.01975084 Ry
     Harris-Foulkes estimate   =     -17.01975084 Ry
     estimated scf accuracy    <          3.0E-10 Ry

     iteration # 10     ecut=    45.00 Ry     beta=0.50
     Davidson diagonalization with overlap
     ethr =  3.79E-12,  avg # of iterations =  1.8

     total cpu time spent up to now is        8.5 secs

     End of self-consistent calculation

          k =-0.1000 0.1000 0.1000 (  1471 PWs)   bands (ev):

    -7.0261   3.8562   4.7690   4.7690   7.8427   9.4209   9.4209   9.4420

          k =-0.3000 0.3000-0.1000 (  1508 PWs)   bands (ev):

    -6.5238   1.6519   3.6501   4.5829   8.3193   9.7635   9.7829  11.0076

          k = 0.5000-0.5000 0.7000 (  1512 PWs)   bands (ev):

    -5.6920  -0.5369   3.3196   4.0337   7.8057   9.4456   9.8655  12.9167

          k = 0.3000-0.3000 0.5000 (  1500 PWs)   bands (ev):

    -5.9299  -0.0161   3.6691   3.8527   7.8637   9.3894  10.2465  11.9014

          k = 0.1000-0.1000 0.3000 (  1504 PWs)   bands (ev):

    -6.7654   2.6462   4.2233   4.3243   8.4193   8.9679  10.2751  10.4359

          k =-0.1000 0.5000 0.1000 (  1508 PWs)   bands (ev):

    -6.2786   1.4002   3.4476   3.5674   7.7536   8.9797  10.9724  11.5254

          k = 0.7000-0.3000 0.9000 (  1517 PWs)   bands (ev):

    -5.5470   0.0379   2.2069   3.1007   7.9488   9.4808  10.6213  12.7127

          k = 0.5000-0.1000 0.7000 (  1516 PWs)   bands (ev):

    -5.3700  -0.2255   1.6673   3.2593   8.4153   9.8591  11.5173  12.4496

          k = 0.3000 0.1000 0.5000 (  1514 PWs)   bands (ev):

    -6.0816   0.7270   2.8880   3.9653   8.5421   9.4287  10.4019  11.0992

          k =-0.1000-1.1000 0.1000 (  1524 PWs)   bands (ev):

    -5.1660  -0.4749   2.3308   2.7833   6.5635   7.6406  14.2560  14.3494

          k =-0.3000-0.9000-0.1000 (  1524 PWs)   bands (ev):

    -5.1425  -0.3515   1.7335   2.6059   7.5365   9.1348  12.0018  13.7157

          k =-0.5000-0.7000-0.3000 (  1510 PWs)   bands (ev):

    -5.4789  -0.5819   2.5687   3.5795   8.3785   9.0748  10.8941  12.8824

          k =-0.1000-0.7000 0.1000 (  1521 PWs)   bands (ev):

    -5.6643   0.2817   2.7212   3.0555   7.0113   8.1087  12.5594  12.9336

          k =-0.3000 0.3000 0.3000 (  1507 PWs)   bands (ev):

    -6.3089   0.7341   4.2867   4.2867   7.4832   9.8130   9.8130  12.1073

          k = 0.5000-0.5000 1.1000 (  1519 PWs)   bands (ev):

    -5.7404   0.0999   2.1800   3.9904   8.3115  10.1603  10.6240  11.8608

          k = 0.3000-0.3000 0.9000 (  1519 PWs)   bands (ev):

    -5.2183  -0.3321   1.4238   3.2489   7.3336  10.7111  12.2004  12.2562

          k =-0.3000-1.3000 0.3000 (  1511 PWs)   bands (ev):

    -5.5055  -0.3746   2.4294   3.4671   7.7174  10.1365  11.1156  11.4420

          k =-0.5000-1.1000 0.1000 (  1512 PWs)   bands (ev):

    -5.1276  -0.2633   1.4890   2.3997   8.9492   9.9754  11.1059  11.6984

          k = 0.5000-0.5000-0.5000 (  1502 PWs)   bands (ev):

    -5.6607  -0.8107   4.0615   4.0615   7.1423   9.5574   9.5574  12.5925

     highest occupied, lowest unoccupied level (ev):     4.7690    6.5635

!    total energy              =     -17.01975084 Ry
     Harris-Foulkes estimate   =     -17.01975084 Ry
     estimated scf accuracy    <          4.0E-12 Ry

     The total energy is the sum of the following terms:

     one-electron contribution =       3.19774107 Ry
     hartree contribution      =       1.58203357 Ry
     xc contribution           =      -4.80765583 Ry
     ewald contribution        =     -16.99186965 Ry

     convergence has been achieved in  10 iterations

     Forces acting on atoms (Ry/au):

     atom    1 type  1   force =     0.00000000    0.00000000    0.00000000
     atom    2 type  2   force =     0.00000000    0.00000000    0.00000000

     Total force =     0.000000     Total SCF correction =     0.000000


     entering subroutine stress ...

          total   stress  (Ry/bohr**3)                   (kbar)     P=    0.20
   0.00000135   0.00000000   0.00000000          0.20      0.00      0.00
   0.00000000   0.00000135   0.00000000          0.00      0.20      0.00
   0.00000000   0.00000000   0.00000135          0.00      0.00      0.20


     Writing output data file alas.save
 
     init_run     :      0.32s CPU      0.34s WALL (       1 calls)
     electrons    :      7.52s CPU      8.13s WALL (       1 calls)
     forces       :      0.04s CPU      0.04s WALL (       1 calls)
     stress       :      0.17s CPU      0.19s WALL (       1 calls)

     Called by init_run:
     wfcinit      :      0.22s CPU      0.24s WALL (       1 calls)
     potinit      :      0.01s CPU      0.01s WALL (       1 calls)

     Called by electrons:
     c_bands      :      6.14s CPU      6.66s WALL (      11 calls)
     sum_band     :      1.24s CPU      1.31s WALL (      11 calls)
     v_of_rho     :      0.06s CPU      0.06s WALL (      11 calls)
     mix_rho      :      0.05s CPU      0.05s WALL (      11 calls)

     Called by c_bands:
     init_us_2    :      0.24s CPU      0.27s WALL (     475 calls)
     cegterg      :      5.93s CPU      6.40s WALL (     209 calls)

     Called by *egterg:
     h_psi        :      4.94s CPU      5.38s WALL (     653 calls)
     g_psi        :      0.12s CPU      0.11s WALL (     425 calls)
     cdiaghg      :      0.16s CPU      0.16s WALL (     615 calls)

     Called by h_psi:
     add_vuspsi   :      0.11s CPU      0.10s WALL (     653 calls)

     General routines
     calbec       :      0.12s CPU      0.14s WALL (     691 calls)
     fft          :      0.05s CPU      0.04s WALL (      50 calls)
     fftw         :      4.77s CPU      5.23s WALL (    9936 calls)
     davcio       :      0.06s CPU      0.09s WALL (     684 calls)
 
 
     PWSCF        :     8.18s CPU         8.84s WALL

 
   This run was terminated on:   3:57:54  23Jun2014            

=------------------------------------------------------------------------------=
   JOB DONE.
=------------------------------------------------------------------------------=
