
     Program PHONON v.4.3.2     starts on 23Jun2014 at  3:57:54 

     This program is part of the open-source Quantum ESPRESSO suite
     for quantum simulation of materials; please cite
         "P. Giannozzi et al., J. Phys.:Condens. Matter 21 395502 (2009);
          URL http://www.quantum-espresso.org", 
     in publications or presentations arising from this work. More details at
     http://www.quantum-espresso.org/wiki/index.php/Citing_Quantum-ESPRESSO

     Ultrasoft (Vanderbilt) Pseudopotentials
      Title line not specified: using 'default'.

   Info: using nr1, nr2, nr3 values from input

   Info: using nr1s, nr2s, nr3s values from input
 
     G-vector sticks info
     --------------------
     sticks:   dense  smooth     PW     G-vecs:    dense   smooth      PW
     Sum         685     685    211                12039    12039    2109
 

     Calculation of q =    0.0000000   0.0000000   0.0000000

                                                                                

     bravais-lattice index     =            2
     lattice parameter (alat)  =      10.5900  a.u.
     unit-cell volume          =     296.9096 (a.u.)^3
     number of atoms/cell      =            2
     number of atomic types    =            2
     kinetic-energy cut-off    =      45.0000  Ry
     charge density cut-off    =     180.0000  Ry
     convergence threshold     =      1.0E-14
     beta                      =       0.7000
     number of iterations used =            4
     Exchange-correlation      =  SLA  PZ   NOGX NOGC ( 1 1 0 0 0)
     EXX-fraction              =        0.00


     celldm(1)=   10.58997  celldm(2)=    0.00000  celldm(3)=    0.00000
     celldm(4)=    0.00000  celldm(5)=    0.00000  celldm(6)=    0.00000

     crystal axes: (cart. coord. in units of alat)
               a(1) = ( -0.5000  0.0000  0.5000 )  
               a(2) = (  0.0000  0.5000  0.5000 )  
               a(3) = ( -0.5000  0.5000  0.0000 )  

     reciprocal axes: (cart. coord. in units 2 pi/alat)
               b(1) = ( -1.0000 -1.0000  1.0000 )  
               b(2) = (  1.0000  1.0000  1.0000 )  
               b(3) = ( -1.0000  1.0000 -1.0000 )  


     Atoms inside the unit cell: 

   Cartesian axes

     site n.  atom      mass           positions (alat units)
        1        Al  26.9800   tau( 1) = (    0.00000    0.00000    0.00000  )
        2        As  74.9200   tau( 2) = (    0.25000    0.25000    0.25000  )

     Computing dynamical matrix for 
                    q = (   0.0000000   0.0000000   0.0000000 )
 
     25 Sym.Ops. (with q -> -q+G )


     G cutoff =  511.3311  (  12039 G-vectors)     FFT grid: ( 32, 32, 32)
     number of k points=    19
                       cart. coord. in units 2pi/alat
        k(    1) = (  -0.1000000   0.1000000   0.1000000), wk =   0.0320000
        k(    2) = (  -0.3000000   0.3000000  -0.1000000), wk =   0.0960000
        k(    3) = (   0.5000000  -0.5000000   0.7000000), wk =   0.0960000
        k(    4) = (   0.3000000  -0.3000000   0.5000000), wk =   0.0960000
        k(    5) = (   0.1000000  -0.1000000   0.3000000), wk =   0.0960000
        k(    6) = (  -0.1000000   0.5000000   0.1000000), wk =   0.0960000
        k(    7) = (   0.7000000  -0.3000000   0.9000000), wk =   0.1920000
        k(    8) = (   0.5000000  -0.1000000   0.7000000), wk =   0.1920000
        k(    9) = (   0.3000000   0.1000000   0.5000000), wk =   0.1920000
        k(   10) = (  -0.1000000  -1.1000000   0.1000000), wk =   0.0960000
        k(   11) = (  -0.3000000  -0.9000000  -0.1000000), wk =   0.1920000
        k(   12) = (  -0.5000000  -0.7000000  -0.3000000), wk =   0.0960000
        k(   13) = (  -0.1000000  -0.7000000   0.1000000), wk =   0.0960000
        k(   14) = (  -0.3000000   0.3000000   0.3000000), wk =   0.0320000
        k(   15) = (   0.5000000  -0.5000000   1.1000000), wk =   0.0960000
        k(   16) = (   0.3000000  -0.3000000   0.9000000), wk =   0.0960000
        k(   17) = (  -0.3000000  -1.3000000   0.3000000), wk =   0.0960000
        k(   18) = (  -0.5000000  -1.1000000   0.1000000), wk =   0.0960000
        k(   19) = (   0.5000000  -0.5000000  -0.5000000), wk =   0.0160000

     PseudoPot. # 1 for Al read from file:
     ./tmp/alas.save/Al.pz-vbc.UPF
     MD5 check sum: 614279c88ff8d45c90147292d03ed420
     Pseudo is Norm-conserving, Zval =  3.0
     Generated by new atomic code, or converted to UPF format
     Using radial grid of  171 points,  2 beta functions with: 
                l(1) =   0
                l(2) =   1

     PseudoPot. # 2 for As read from file:
     ./tmp/alas.save/As.pz-bhs.UPF
     MD5 check sum: 451cd3365afcfc94d28b1934951c34a8
     Pseudo is Norm-conserving, Zval =  5.0
     Generated by new atomic code, or converted to UPF format
     Using radial grid of  525 points,  2 beta functions with: 
                l(1) =   0
                l(2) =   1


     Electric field:
     Dielectric constant
     Born effective charges as d Force / d E


     Atomic displacements:
     There are   2 irreducible representations

     Representation     1      3 modes -T_2  G_15 P_4 To be done

     Representation     2      3 modes -T_2  G_15 P_4 To be done



     Alpha used in Ewald sum =   1.9000
     PHONON       :     0.76s CPU         0.77s WALL


     Electric Fields Calculation

      iter #   1 total cpu time :    10.1 secs   av.it.:   6.3
      thresh= 0.100E-01 alpha_mix =  0.700 |ddv_scf|^2 =  0.292E-06

      iter #   2 total cpu time :    14.7 secs   av.it.:  10.5
      thresh= 0.541E-04 alpha_mix =  0.700 |ddv_scf|^2 =  0.142E-07

      iter #   3 total cpu time :    19.2 secs   av.it.:  10.5
      thresh= 0.119E-04 alpha_mix =  0.700 |ddv_scf|^2 =  0.970E-10

      iter #   4 total cpu time :    23.7 secs   av.it.:  10.6
      thresh= 0.985E-06 alpha_mix =  0.700 |ddv_scf|^2 =  0.505E-12

      iter #   5 total cpu time :    28.1 secs   av.it.:  10.2
      thresh= 0.711E-07 alpha_mix =  0.700 |ddv_scf|^2 =  0.568E-14

     End of electric fields calculation

          Dielectric constant in cartesian axis 

          (       9.224845161       0.000000000       0.000000000 )
          (       0.000000000       9.224845161       0.000000000 )
          (       0.000000000       0.000000000       9.224845161 )

          Effective charges (d Force / dE) in cartesian axis

           atom      1   Al 
      Ex  (        2.15581        0.00000        0.00000 )
      Ey  (        0.00000        2.15581        0.00000 )
      Ez  (        0.00000        0.00000        2.15581 )
           atom      2   As 
      Ex  (       -2.17069        0.00000        0.00000 )
      Ey  (        0.00000       -2.17069        0.00000 )
      Ez  (        0.00000        0.00000       -2.17069 )


     Representation #  1 modes #   1  2  3

     Self-consistent Calculation

      iter #   1 total cpu time :    33.3 secs   av.it.:   5.9
      thresh= 0.100E-01 alpha_mix =  0.700 |ddv_scf|^2 =  0.113E-06

      iter #   2 total cpu time :    38.2 secs   av.it.:  10.7
      thresh= 0.336E-04 alpha_mix =  0.700 |ddv_scf|^2 =  0.548E-08

      iter #   3 total cpu time :    42.8 secs   av.it.:  10.5
      thresh= 0.740E-05 alpha_mix =  0.700 |ddv_scf|^2 =  0.961E-11

      iter #   4 total cpu time :    47.3 secs   av.it.:  10.5
      thresh= 0.310E-06 alpha_mix =  0.700 |ddv_scf|^2 =  0.161E-12

      iter #   5 total cpu time :    51.8 secs   av.it.:  10.2
      thresh= 0.401E-07 alpha_mix =  0.700 |ddv_scf|^2 =  0.197E-14

     End of self-consistent calculation

     Convergence has been achieved 


     Representation #  2 modes #   4  5  6

     Self-consistent Calculation

      iter #   1 total cpu time :    55.1 secs   av.it.:   5.0
      thresh= 0.100E-01 alpha_mix =  0.700 |ddv_scf|^2 =  0.711E-08

      iter #   2 total cpu time :    59.7 secs   av.it.:  10.5
      thresh= 0.843E-05 alpha_mix =  0.700 |ddv_scf|^2 =  0.843E-10

      iter #   3 total cpu time :    64.2 secs   av.it.:  10.3
      thresh= 0.918E-06 alpha_mix =  0.700 |ddv_scf|^2 =  0.789E-11

      iter #   4 total cpu time :    68.7 secs   av.it.:  10.2
      thresh= 0.281E-06 alpha_mix =  0.700 |ddv_scf|^2 =  0.331E-12

      iter #   5 total cpu time :    73.2 secs   av.it.:  10.4
      thresh= 0.575E-07 alpha_mix =  0.700 |ddv_scf|^2 =  0.980E-16

     End of self-consistent calculation

     Convergence has been achieved 
 
     Number of q in the star =    1
     List of q in the star:
          1   0.000000000   0.000000000   0.000000000

          Dielectric constant in cartesian axis 

          (       9.224845161       0.000000000       0.000000000 )
          (       0.000000000       9.224845161       0.000000000 )
          (       0.000000000       0.000000000       9.224845161 )

          Effective charges (d Force / dE) in cartesian axis

           atom      1   Al 
      Ex  (        2.15581        0.00000        0.00000 )
      Ey  (        0.00000        2.15581        0.00000 )
      Ez  (        0.00000        0.00000        2.15581 )
           atom      2   As 
      Ex  (       -2.17069        0.00000        0.00000 )
      Ey  (        0.00000       -2.17069        0.00000 )
      Ez  (        0.00000        0.00000       -2.17069 )

     Diagonalizing the dynamical matrix

     q = (    0.000000000   0.000000000   0.000000000 ) 

 **************************************************************************
     omega( 1) =       0.153627 [THz] =       5.124437 [cm-1]
     omega( 2) =       0.153627 [THz] =       5.124437 [cm-1]
     omega( 3) =       0.153627 [THz] =       5.124437 [cm-1]
     omega( 4) =      10.714684 [THz] =     357.403379 [cm-1]
     omega( 5) =      10.714684 [THz] =     357.403379 [cm-1]
     omega( 6) =      10.714684 [THz] =     357.403379 [cm-1]
 **************************************************************************

     Mode symmetry, T_d (-43m)  point group:

     omega(  1 -  3) =          5.1  [cm-1]   --> T_2  G_15 P_4   I+R
     omega(  4 -  6) =        357.4  [cm-1]   --> T_2  G_15 P_4   I+R

 **************************************************************************
 
     PHONON       :  1m10.14s CPU     1m13.36s WALL

     INITIALIZATION: 
     phq_setup    :      0.01s CPU      0.01s WALL (       1 calls)
     phq_init     :      0.21s CPU      0.21s WALL (       1 calls)
 
     phq_init     :      0.21s CPU      0.21s WALL (       1 calls)
     init_vloc    :      0.00s CPU      0.00s WALL (       1 calls)
     init_us_1    :      0.03s CPU      0.03s WALL (       1 calls)
 
     DIELECTRIC CONSTANT AND EFFECTIVE CHARGES:
     solve_e      :     26.46s CPU     27.37s WALL (       1 calls)
     dielec       :      0.00s CPU      0.02s WALL (       1 calls)
     zstar_eu     :      1.59s CPU      1.68s WALL (       1 calls)
 
     DYNAMICAL MATRIX:
     dynmat0      :      0.06s CPU      0.06s WALL (       1 calls)
     phqscf       :     41.32s CPU     43.50s WALL (       1 calls)
     dynmatrix    :      0.01s CPU      0.01s WALL (       1 calls)
 
     phqscf       :     41.32s CPU     43.50s WALL (       1 calls)
     solve_linter :     41.18s CPU     43.33s WALL (       2 calls)
     drhodv       :      0.13s CPU      0.15s WALL (       2 calls)
 
     dynmat0      :      0.06s CPU      0.06s WALL (       1 calls)
     dynmat_us    :      0.05s CPU      0.05s WALL (       1 calls)
     d2ionq       :      0.01s CPU      0.01s WALL (       1 calls)
 
     dynmat_us    :      0.05s CPU      0.05s WALL (       1 calls)
 
     phqscf       :     41.32s CPU     43.50s WALL (       1 calls)
     solve_linter :     41.18s CPU     43.33s WALL (       2 calls)
 
     solve_linter :     41.18s CPU     43.33s WALL (       2 calls)
     dvqpsi_us    :      3.07s CPU      3.23s WALL (     228 calls)
     ortho        :      0.21s CPU      0.19s WALL (     912 calls)
     cgsolve      :     54.87s CPU     56.63s WALL (     912 calls)
     incdrhoscf   :      4.96s CPU      5.24s WALL (     855 calls)
     vpsifft      :      2.21s CPU      2.47s WALL (     456 calls)
     dv_of_drho   :      0.14s CPU      0.15s WALL (      45 calls)
     mix_pot      :      0.16s CPU      0.32s WALL (      15 calls)
     symdvscf     :      0.89s CPU      0.92s WALL (      10 calls)
 
     dvqpsi_us    :      3.07s CPU      3.23s WALL (     228 calls)
     dvqpsi_us_on :      0.13s CPU      0.15s WALL (     228 calls)
 
     cgsolve      :     54.87s CPU     56.63s WALL (     912 calls)
     ch_psi       :     52.87s CPU     54.64s WALL (   10359 calls)
 
     ch_psi       :     52.87s CPU     54.64s WALL (   10359 calls)
     h_psiq       :     49.29s CPU     50.87s WALL (   10359 calls)
     last         :      3.26s CPU      3.44s WALL (   10359 calls)
 
     h_psiq       :     49.29s CPU     50.87s WALL (   10359 calls)
     firstfft     :     21.95s CPU     22.68s WALL (   38035 calls)
     secondfft    :     20.63s CPU     21.22s WALL (   38035 calls)
     add_vuspsi   :      1.43s CPU      1.42s WALL (   10359 calls)
 
     incdrhoscf   :      4.96s CPU      5.24s WALL (     855 calls)
 
 
      General routines
     calbec       :      2.12s CPU      2.34s WALL (   21421 calls)
     fft          :      0.09s CPU      0.12s WALL (     139 calls)
     ffts         :      0.18s CPU      0.19s WALL (     240 calls)
     fftw         :     47.13s CPU     48.79s WALL (   92030 calls)
     davcio       :      0.50s CPU      0.98s WALL (    3498 calls)
     write_rec    :      0.08s CPU      0.14s WALL (      17 calls)
 
