ANIMSTEPS   6
CRYSTAL
PRIMVEC
   -2.801985382    0.000000000    2.801985382
    0.000000000    2.801985382    2.801985382
   -2.801985382    2.801985382    0.000000000
PRIMCOORD  1
      2   1
   Al     0.00000   0.00000   0.00000  -0.03105  -0.06061   0.01905
   As     1.40099   1.40099   1.40099  -0.03105  -0.06061   0.01905
PRIMCOORD  2
      2   1
   Al     0.00000   0.00000   0.00000  -0.01201  -0.01522  -0.06800
   As     1.40099   1.40099   1.40099  -0.01201  -0.01522  -0.06800
PRIMCOORD  3
      2   1
   Al     0.00000   0.00000   0.00000   0.06238  -0.03310  -0.00361
   As     1.40099   1.40099   1.40099   0.06238  -0.03310  -0.00361
PRIMCOORD  4
      2   1
   Al     0.00000   0.00000   0.00000   0.00000  -0.09409   0.00000
   As     1.40099   1.40099   1.40099   0.00000   0.03388   0.00000
PRIMCOORD  5
      2   1
   Al     0.00000   0.00000   0.00000   0.00000   0.00000   0.09409
   As     1.40099   1.40099   1.40099   0.00000   0.00000  -0.03388
PRIMCOORD  6
      2   1
   Al     0.00000   0.00000   0.00000   0.09409   0.00000   0.00000
   As     1.40099   1.40099   1.40099  -0.03388   0.00000   0.00000
