[Molden Format]
[FREQ]
    0.00
    0.00
    0.00
  357.40
  357.40
  395.39
[FR-COORD]
   Al          0.00000        0.00000        0.00000
   As          2.64749        2.64749        2.64749
[FR-NORM-COORD]
 vibration     1
  -0.31053  -0.60605   0.19046
  -0.31053  -0.60605   0.19046
 vibration     2
  -0.12008  -0.15218  -0.68002
  -0.12008  -0.15218  -0.68002
 vibration     3
   0.62382  -0.33097  -0.03609
   0.62382  -0.33097  -0.03609
 vibration     4
   0.00000  -0.94085   0.00000
   0.00000   0.33882   0.00000
 vibration     5
   0.00000   0.00000   0.94085
   0.00000   0.00000  -0.33882
 vibration     6
   0.94085   0.00000   0.00000
  -0.33882   0.00000   0.00000
