
     Program PWSCF v.5.1 starts on 30Jun2014 at 17:41:56 

     This program is part of the open-source Quantum ESPRESSO suite
     for quantum simulation of materials; please cite
         "P. Giannozzi et al., J. Phys.:Condens. Matter 21 395502 (2009);
          URL http://www.quantum-espresso.org", 
     in publications or presentations arising from this work. More details at
     http://www.quantum-espresso.org/quote

     Parallel version (MPI), running on     4 processors
     R & G space division:  proc/nbgrp/npool/nimage =       4
     Waiting for input...
     Reading input from standard input

     Current dimensions of program PWSCF are:
     Max number of different atomic species (ntypx) = 10
     Max number of k-points (npk) =  40000
     Max angular momentum in pseudopotentials (lmaxx) =  3
               file Fe.pbe-nd-rrkjus.UPF: wavefunction(s)  4S renormalized
               file Fe.pbe-nd-rrkjus.UPF: wavefunction(s)  4S renormalized

     Subspace diagonalization in iterative solution of the eigenvalue problem:
     a serial algorithm will be used

 
     Parallelization info
     --------------------
     sticks:   dense  smooth     PW     G-vecs:    dense   smooth      PW
     Min         595     199     60                18379     3540     586
     Max         596     200     61                18382     3545     587
     Sum        2383     797    241                73525    14171    2347
 
     Generating pointlists ...
     new r_m :   0.1786 (alat units)  1.9362 (a.u.) for type    1
     new r_m :   0.1786 (alat units)  1.9362 (a.u.) for type    2


     bravais-lattice index     =            3
     lattice parameter (alat)  =      10.8400  a.u.
     unit-cell volume          =     636.8804 (a.u.)^3
     number of atoms/cell      =            8
     number of atomic types    =            2
     number of electrons       =        64.00
     number of Kohn-Sham states=           50
     kinetic-energy cutoff     =      30.0000  Ry
     charge density cutoff     =     360.0000  Ry
     convergence threshold     =      1.0E-09
     mixing beta               =       0.3000
     number of iterations used =            8  plain     mixing
     Exchange-correlation      =  SLA  PW   PBE  PBE ( 1  4  3  4 0)

     celldm(1)=  10.840000  celldm(2)=   0.000000  celldm(3)=   0.000000
     celldm(4)=   0.000000  celldm(5)=   0.000000  celldm(6)=   0.000000

     crystal axes: (cart. coord. in units of alat)
               a(1) = (   0.500000   0.500000   0.500000 )  
               a(2) = (  -0.500000   0.500000   0.500000 )  
               a(3) = (  -0.500000  -0.500000   0.500000 )  

     reciprocal axes: (cart. coord. in units 2 pi/alat)
               b(1) = (  1.000000  0.000000  1.000000 )  
               b(2) = ( -1.000000  1.000000  0.000000 )  
               b(3) = (  0.000000 -1.000000  1.000000 )  


     PseudoPot. # 1 for Fe read from file:
     ../pseudo/Fe.pbe-nd-rrkjus.UPF
     MD5 check sum: 23c640529ef232ac9996b4ec1b0ce2fd
     Pseudo is Ultrasoft + core correction, Zval =  8.0
     Generated by new atomic code, or converted to UPF format
     Using radial grid of  957 points,  6 beta functions with: 
                l(1) =   0
                l(2) =   0
                l(3) =   1
                l(4) =   1
                l(5) =   2
                l(6) =   2
     Q(r) pseudized with 0 coefficients 


     PseudoPot. # 2 for Fe read from file:
     ../pseudo/Fe.pbe-nd-rrkjus.UPF
     MD5 check sum: 23c640529ef232ac9996b4ec1b0ce2fd
     Pseudo is Ultrasoft + core correction, Zval =  8.0
     Generated by new atomic code, or converted to UPF format
     Using radial grid of  957 points,  6 beta functions with: 
                l(1) =   0
                l(2) =   0
                l(3) =   1
                l(4) =   1
                l(5) =   2
                l(6) =   2
     Q(r) pseudized with 0 coefficients 


     atomic species   valence    mass     pseudopotential
        Fe1            8.00     1.00000     Fe( 1.00)
        Fe             8.00     1.00000     Fe( 1.00)

     Starting magnetic structure 
     atomic species   magnetization
        Fe1          0.600
        Fe           0.600


     Simplified LDA+U calculation (l_max = 2) with parameters (eV):
     atomic species    L          U    alpha       J0     beta
        Fe1            2     0.0000   0.0000   0.0000   0.0000
        Fe             2     0.0000   0.0000   0.0000   0.0000



     48 Sym. Ops., with inversion, found


                                    s                        frac. trans.

      isym =  1     identity                                     

 cryst.   s( 1) = (     1          0          0      )
                  (     0          1          0      )
                  (     0          0          1      )

 cart.    s( 1) = (  1.0000000  0.0000000  0.0000000 )
                  (  0.0000000  1.0000000  0.0000000 )
                  (  0.0000000  0.0000000  1.0000000 )


      isym =  2     180 deg rotation - cart. axis [0,0,1]        

 cryst.   s( 2) = (     0          0          1      )
                  (     1         -1          1      )
                  (     1          0          0      )

 cart.    s( 2) = ( -1.0000000  0.0000000  0.0000000 )
                  (  0.0000000 -1.0000000  0.0000000 )
                  (  0.0000000  0.0000000  1.0000000 )


      isym =  3     180 deg rotation - cart. axis [0,1,0]        

 cryst.   s( 3) = (    -1          1         -1      )
                  (     0          0         -1      )
                  (     0         -1          0      )

 cart.    s( 3) = ( -1.0000000  0.0000000  0.0000000 )
                  (  0.0000000  1.0000000  0.0000000 )
                  (  0.0000000  0.0000000 -1.0000000 )


      isym =  4     180 deg rotation - cart. axis [1,0,0]        

 cryst.   s( 4) = (     0         -1          0      )
                  (    -1          0          0      )
                  (    -1          1         -1      )

 cart.    s( 4) = (  1.0000000  0.0000000  0.0000000 )
                  (  0.0000000 -1.0000000  0.0000000 )
                  (  0.0000000  0.0000000 -1.0000000 )


      isym =  5     180 deg rotation - cart. axis [1,1,0]        

 cryst.   s( 5) = (     0          0         -1      )
                  (     0         -1          0      )
                  (    -1          0          0      )

 cart.    s( 5) = (  0.0000000  1.0000000  0.0000000 )
                  (  1.0000000  0.0000000  0.0000000 )
                  (  0.0000000  0.0000000 -1.0000000 )


      isym =  6     180 deg rotation - cart. axis [1,-1,0]       

 cryst.   s( 6) = (    -1          0          0      )
                  (    -1          1         -1      )
                  (     0          0         -1      )

 cart.    s( 6) = (  0.0000000 -1.0000000  0.0000000 )
                  ( -1.0000000  0.0000000  0.0000000 )
                  (  0.0000000  0.0000000 -1.0000000 )


      isym =  7      90 deg rotation - cart. axis [0,0,-1]       

 cryst.   s( 7) = (     1         -1          1      )
                  (     1          0          0      )
                  (     0          1          0      )

 cart.    s( 7) = (  0.0000000  1.0000000  0.0000000 )
                  ( -1.0000000  0.0000000  0.0000000 )
                  (  0.0000000  0.0000000  1.0000000 )


      isym =  8      90 deg rotation - cart. axis [0,0,1]        

 cryst.   s( 8) = (     0          1          0      )
                  (     0          0          1      )
                  (     1         -1          1      )

 cart.    s( 8) = (  0.0000000 -1.0000000  0.0000000 )
                  (  1.0000000  0.0000000  0.0000000 )
                  (  0.0000000  0.0000000  1.0000000 )


      isym =  9     180 deg rotation - cart. axis [1,0,1]        

 cryst.   s( 9) = (     1         -1          1      )
                  (     0         -1          0      )
                  (     0          0         -1      )

 cart.    s( 9) = (  0.0000000  0.0000000  1.0000000 )
                  (  0.0000000 -1.0000000  0.0000000 )
                  (  1.0000000  0.0000000  0.0000000 )


      isym = 10     180 deg rotation - cart. axis [-1,0,1]       

 cryst.   s(10) = (    -1          0          0      )
                  (     0          0          1      )
                  (     0          1          0      )

 cart.    s(10) = (  0.0000000  0.0000000 -1.0000000 )
                  (  0.0000000 -1.0000000  0.0000000 )
                  ( -1.0000000  0.0000000  0.0000000 )


      isym = 11      90 deg rotation - cart. axis [0,1,0]        

 cryst.   s(11) = (     0          0         -1      )
                  (     1          0          0      )
                  (     1         -1          1      )

 cart.    s(11) = (  0.0000000  0.0000000  1.0000000 )
                  (  0.0000000  1.0000000  0.0000000 )
                  ( -1.0000000  0.0000000  0.0000000 )


      isym = 12      90 deg rotation - cart. axis [0,-1,0]       

 cryst.   s(12) = (     0          1          0      )
                  (    -1          1         -1      )
                  (    -1          0          0      )

 cart.    s(12) = (  0.0000000  0.0000000 -1.0000000 )
                  (  0.0000000  1.0000000  0.0000000 )
                  (  1.0000000  0.0000000  0.0000000 )


      isym = 13     180 deg rotation - cart. axis [0,1,1]        

 cryst.   s(13) = (     0          1          0      )
                  (     1          0          0      )
                  (     0          0         -1      )

 cart.    s(13) = ( -1.0000000  0.0000000  0.0000000 )
                  (  0.0000000  0.0000000  1.0000000 )
                  (  0.0000000  1.0000000  0.0000000 )


      isym = 14     180 deg rotation - cart. axis [0,1,-1]       

 cryst.   s(14) = (    -1          0          0      )
                  (     0         -1          0      )
                  (     1         -1          1      )

 cart.    s(14) = ( -1.0000000  0.0000000  0.0000000 )
                  (  0.0000000  0.0000000 -1.0000000 )
                  (  0.0000000 -1.0000000  0.0000000 )


      isym = 15      90 deg rotation - cart. axis [-1,0,0]       

 cryst.   s(15) = (     0          0         -1      )
                  (    -1          1         -1      )
                  (     0          1          0      )

 cart.    s(15) = (  1.0000000  0.0000000  0.0000000 )
                  (  0.0000000  0.0000000  1.0000000 )
                  (  0.0000000 -1.0000000  0.0000000 )


      isym = 16      90 deg rotation - cart. axis [1,0,0]        

 cryst.   s(16) = (     1         -1          1      )
                  (     0          0          1      )
                  (    -1          0          0      )

 cart.    s(16) = (  1.0000000  0.0000000  0.0000000 )
                  (  0.0000000  0.0000000 -1.0000000 )
                  (  0.0000000  1.0000000  0.0000000 )


      isym = 17     120 deg rotation - cart. axis [-1,-1,-1]     

 cryst.   s(17) = (     1          0          0      )
                  (     0          0         -1      )
                  (    -1          1         -1      )

 cart.    s(17) = (  0.0000000  1.0000000  0.0000000 )
                  (  0.0000000  0.0000000  1.0000000 )
                  (  1.0000000  0.0000000  0.0000000 )


      isym = 18     120 deg rotation - cart. axis [-1,1,1]       

 cryst.   s(18) = (    -1          1         -1      )
                  (     0          1          0      )
                  (     1          0          0      )

 cart.    s(18) = (  0.0000000 -1.0000000  0.0000000 )
                  (  0.0000000  0.0000000  1.0000000 )
                  ( -1.0000000  0.0000000  0.0000000 )


      isym = 19     120 deg rotation - cart. axis [1,1,-1]       

 cryst.   s(19) = (     0         -1          0      )
                  (     1         -1          1      )
                  (     0          0          1      )

 cart.    s(19) = (  0.0000000  1.0000000  0.0000000 )
                  (  0.0000000  0.0000000 -1.0000000 )
                  ( -1.0000000  0.0000000  0.0000000 )


      isym = 20     120 deg rotation - cart. axis [1,-1,1]       

 cryst.   s(20) = (     0          0          1      )
                  (    -1          0          0      )
                  (     0         -1          0      )

 cart.    s(20) = (  0.0000000 -1.0000000  0.0000000 )
                  (  0.0000000  0.0000000 -1.0000000 )
                  (  1.0000000  0.0000000  0.0000000 )


      isym = 21     120 deg rotation - cart. axis [1,1,1]        

 cryst.   s(21) = (     1          0          0      )
                  (     1         -1          1      )
                  (     0         -1          0      )

 cart.    s(21) = (  0.0000000  0.0000000  1.0000000 )
                  (  1.0000000  0.0000000  0.0000000 )
                  (  0.0000000  1.0000000  0.0000000 )


      isym = 22     120 deg rotation - cart. axis [-1,1,-1]      

 cryst.   s(22) = (     0         -1          0      )
                  (     0          0         -1      )
                  (     1          0          0      )

 cart.    s(22) = (  0.0000000  0.0000000  1.0000000 )
                  ( -1.0000000  0.0000000  0.0000000 )
                  (  0.0000000 -1.0000000  0.0000000 )


      isym = 23     120 deg rotation - cart. axis [1,-1,-1]      

 cryst.   s(23) = (     0          0          1      )
                  (     0          1          0      )
                  (    -1          1         -1      )

 cart.    s(23) = (  0.0000000  0.0000000 -1.0000000 )
                  ( -1.0000000  0.0000000  0.0000000 )
                  (  0.0000000  1.0000000  0.0000000 )


      isym = 24     120 deg rotation - cart. axis [-1,-1,1]      

 cryst.   s(24) = (    -1          1         -1      )
                  (    -1          0          0      )
                  (     0          0          1      )

 cart.    s(24) = (  0.0000000  0.0000000 -1.0000000 )
                  (  1.0000000  0.0000000  0.0000000 )
                  (  0.0000000 -1.0000000  0.0000000 )


      isym = 25     inversion                                    

 cryst.   s(25) = (    -1          0          0      )
                  (     0         -1          0      )
                  (     0          0         -1      )

 cart.    s(25) = ( -1.0000000  0.0000000  0.0000000 )
                  (  0.0000000 -1.0000000  0.0000000 )
                  (  0.0000000  0.0000000 -1.0000000 )


      isym = 26     inv. 180 deg rotation - cart. axis [0,0,1]   

 cryst.   s(26) = (     0          0         -1      )
                  (    -1          1         -1      )
                  (    -1          0          0      )

 cart.    s(26) = (  1.0000000  0.0000000  0.0000000 )
                  (  0.0000000  1.0000000  0.0000000 )
                  (  0.0000000  0.0000000 -1.0000000 )


      isym = 27     inv. 180 deg rotation - cart. axis [0,1,0]   

 cryst.   s(27) = (     1         -1          1      )
                  (     0          0          1      )
                  (     0          1          0      )

 cart.    s(27) = (  1.0000000  0.0000000  0.0000000 )
                  (  0.0000000 -1.0000000  0.0000000 )
                  (  0.0000000  0.0000000  1.0000000 )


      isym = 28     inv. 180 deg rotation - cart. axis [1,0,0]   

 cryst.   s(28) = (     0          1          0      )
                  (     1          0          0      )
                  (     1         -1          1      )

 cart.    s(28) = ( -1.0000000  0.0000000  0.0000000 )
                  (  0.0000000  1.0000000  0.0000000 )
                  (  0.0000000  0.0000000  1.0000000 )


      isym = 29     inv. 180 deg rotation - cart. axis [1,1,0]   

 cryst.   s(29) = (     0          0          1      )
                  (     0          1          0      )
                  (     1          0          0      )

 cart.    s(29) = (  0.0000000 -1.0000000  0.0000000 )
                  ( -1.0000000  0.0000000  0.0000000 )
                  (  0.0000000  0.0000000  1.0000000 )


      isym = 30     inv. 180 deg rotation - cart. axis [1,-1,0]  

 cryst.   s(30) = (     1          0          0      )
                  (     1         -1          1      )
                  (     0          0          1      )

 cart.    s(30) = (  0.0000000  1.0000000  0.0000000 )
                  (  1.0000000  0.0000000  0.0000000 )
                  (  0.0000000  0.0000000  1.0000000 )


      isym = 31     inv.  90 deg rotation - cart. axis [0,0,-1]  

 cryst.   s(31) = (    -1          1         -1      )
                  (    -1          0          0      )
                  (     0         -1          0      )

 cart.    s(31) = (  0.0000000 -1.0000000  0.0000000 )
                  (  1.0000000  0.0000000  0.0000000 )
                  (  0.0000000  0.0000000 -1.0000000 )


      isym = 32     inv.  90 deg rotation - cart. axis [0,0,1]   

 cryst.   s(32) = (     0         -1          0      )
                  (     0          0         -1      )
                  (    -1          1         -1      )

 cart.    s(32) = (  0.0000000  1.0000000  0.0000000 )
                  ( -1.0000000  0.0000000  0.0000000 )
                  (  0.0000000  0.0000000 -1.0000000 )


      isym = 33     inv. 180 deg rotation - cart. axis [1,0,1]   

 cryst.   s(33) = (    -1          1         -1      )
                  (     0          1          0      )
                  (     0          0          1      )

 cart.    s(33) = (  0.0000000  0.0000000 -1.0000000 )
                  (  0.0000000  1.0000000  0.0000000 )
                  ( -1.0000000  0.0000000  0.0000000 )


      isym = 34     inv. 180 deg rotation - cart. axis [-1,0,1]  

 cryst.   s(34) = (     1          0          0      )
                  (     0          0         -1      )
                  (     0         -1          0      )

 cart.    s(34) = (  0.0000000  0.0000000  1.0000000 )
                  (  0.0000000  1.0000000  0.0000000 )
                  (  1.0000000  0.0000000  0.0000000 )


      isym = 35     inv.  90 deg rotation - cart. axis [0,1,0]   

 cryst.   s(35) = (     0          0          1      )
                  (    -1          0          0      )
                  (    -1          1         -1      )

 cart.    s(35) = (  0.0000000  0.0000000 -1.0000000 )
                  (  0.0000000 -1.0000000  0.0000000 )
                  (  1.0000000  0.0000000  0.0000000 )


      isym = 36     inv.  90 deg rotation - cart. axis [0,-1,0]  

 cryst.   s(36) = (     0         -1          0      )
                  (     1         -1          1      )
                  (     1          0          0      )

 cart.    s(36) = (  0.0000000  0.0000000  1.0000000 )
                  (  0.0000000 -1.0000000  0.0000000 )
                  ( -1.0000000  0.0000000  0.0000000 )


      isym = 37     inv. 180 deg rotation - cart. axis [0,1,1]   

 cryst.   s(37) = (     0         -1          0      )
                  (    -1          0          0      )
                  (     0          0          1      )

 cart.    s(37) = (  1.0000000  0.0000000  0.0000000 )
                  (  0.0000000  0.0000000 -1.0000000 )
                  (  0.0000000 -1.0000000  0.0000000 )


      isym = 38     inv. 180 deg rotation - cart. axis [0,1,-1]  

 cryst.   s(38) = (     1          0          0      )
                  (     0          1          0      )
                  (    -1          1         -1      )

 cart.    s(38) = (  1.0000000  0.0000000  0.0000000 )
                  (  0.0000000  0.0000000  1.0000000 )
                  (  0.0000000  1.0000000  0.0000000 )


      isym = 39     inv.  90 deg rotation - cart. axis [-1,0,0]  

 cryst.   s(39) = (     0          0          1      )
                  (     1         -1          1      )
                  (     0         -1          0      )

 cart.    s(39) = ( -1.0000000  0.0000000  0.0000000 )
                  (  0.0000000  0.0000000 -1.0000000 )
                  (  0.0000000  1.0000000  0.0000000 )


      isym = 40     inv.  90 deg rotation - cart. axis [1,0,0]   

 cryst.   s(40) = (    -1          1         -1      )
                  (     0          0         -1      )
                  (     1          0          0      )

 cart.    s(40) = ( -1.0000000  0.0000000  0.0000000 )
                  (  0.0000000  0.0000000  1.0000000 )
                  (  0.0000000 -1.0000000  0.0000000 )


      isym = 41     inv. 120 deg rotation - cart. axis [-1,-1,-1]

 cryst.   s(41) = (    -1          0          0      )
                  (     0          0          1      )
                  (     1         -1          1      )

 cart.    s(41) = (  0.0000000 -1.0000000  0.0000000 )
                  (  0.0000000  0.0000000 -1.0000000 )
                  ( -1.0000000  0.0000000  0.0000000 )


      isym = 42     inv. 120 deg rotation - cart. axis [-1,1,1]  

 cryst.   s(42) = (     1         -1          1      )
                  (     0         -1          0      )
                  (    -1          0          0      )

 cart.    s(42) = (  0.0000000  1.0000000  0.0000000 )
                  (  0.0000000  0.0000000 -1.0000000 )
                  (  1.0000000  0.0000000  0.0000000 )


      isym = 43     inv. 120 deg rotation - cart. axis [1,1,-1]  

 cryst.   s(43) = (     0          1          0      )
                  (    -1          1         -1      )
                  (     0          0         -1      )

 cart.    s(43) = (  0.0000000 -1.0000000  0.0000000 )
                  (  0.0000000  0.0000000  1.0000000 )
                  (  1.0000000  0.0000000  0.0000000 )


      isym = 44     inv. 120 deg rotation - cart. axis [1,-1,1]  

 cryst.   s(44) = (     0          0         -1      )
                  (     1          0          0      )
                  (     0          1          0      )

 cart.    s(44) = (  0.0000000  1.0000000  0.0000000 )
                  (  0.0000000  0.0000000  1.0000000 )
                  ( -1.0000000  0.0000000  0.0000000 )


      isym = 45     inv. 120 deg rotation - cart. axis [1,1,1]   

 cryst.   s(45) = (    -1          0          0      )
                  (    -1          1         -1      )
                  (     0          1          0      )

 cart.    s(45) = (  0.0000000  0.0000000 -1.0000000 )
                  ( -1.0000000  0.0000000  0.0000000 )
                  (  0.0000000 -1.0000000  0.0000000 )


      isym = 46     inv. 120 deg rotation - cart. axis [-1,1,-1] 

 cryst.   s(46) = (     0          1          0      )
                  (     0          0          1      )
                  (    -1          0          0      )

 cart.    s(46) = (  0.0000000  0.0000000 -1.0000000 )
                  (  1.0000000  0.0000000  0.0000000 )
                  (  0.0000000  1.0000000  0.0000000 )


      isym = 47     inv. 120 deg rotation - cart. axis [1,-1,-1] 

 cryst.   s(47) = (     0          0         -1      )
                  (     0         -1          0      )
                  (     1         -1          1      )

 cart.    s(47) = (  0.0000000  0.0000000  1.0000000 )
                  (  1.0000000  0.0000000  0.0000000 )
                  (  0.0000000 -1.0000000  0.0000000 )


      isym = 48     inv. 120 deg rotation - cart. axis [-1,-1,1] 

 cryst.   s(48) = (     1         -1          1      )
                  (     1          0          0      )
                  (     0          0         -1      )

 cart.    s(48) = (  0.0000000  0.0000000  1.0000000 )
                  ( -1.0000000  0.0000000  0.0000000 )
                  (  0.0000000  1.0000000  0.0000000 )


     point group O_h (m-3m) 
     there are 10 classes
     the character table:

       E     8C3   6C2'  6C4   3C2   i     6S4   8S6   3s_h  6s_d 
A_1g   1.00  1.00  1.00  1.00  1.00  1.00  1.00  1.00  1.00  1.00
A_2g   1.00  1.00 -1.00 -1.00  1.00  1.00 -1.00  1.00  1.00 -1.00
E_g    2.00 -1.00  0.00  0.00  2.00  2.00  0.00 -1.00  2.00  0.00
T_1g   3.00  0.00 -1.00  1.00 -1.00  3.00  1.00  0.00 -1.00 -1.00
T_2g   3.00  0.00  1.00 -1.00 -1.00  3.00 -1.00  0.00 -1.00  1.00
A_1u   1.00  1.00  1.00  1.00  1.00 -1.00 -1.00 -1.00 -1.00 -1.00
A_2u   1.00  1.00 -1.00 -1.00  1.00 -1.00  1.00 -1.00 -1.00  1.00
E_u    2.00 -1.00  0.00  0.00  2.00 -2.00  0.00  1.00 -2.00  0.00
T_1u   3.00  0.00 -1.00  1.00 -1.00 -3.00 -1.00  0.00  1.00  1.00
T_2u   3.00  0.00  1.00 -1.00 -1.00 -3.00  1.00  0.00  1.00 -1.00

     the symmetry operations in each class:
     E        1
     3C2      2    4    3
     6C2'     5    6   14   13   10    9
     6C4      7    8   15   16   12   11
     8C3     17   19   20   18   24   21   22   23
     i       25
     3s_h    26   28   27
     6s_d    29   30   38   37   34   33
     6S4     31   32   39   40   36   35
     8S6     41   43   44   42   48   45   46   47

   Cartesian axes

     site n.     atom                  positions (alat units)
         1           Fe1 tau(   1) = (   0.0000000   0.0000000   0.0000000  )
         2           Fe  tau(   2) = (   0.2500000   0.2500000   0.2500000  )
         3           Fe  tau(   3) = (  -0.2500000   0.2500000   0.2500000  )
         4           Fe  tau(   4) = (  -0.2500000  -0.2500000   0.2500000  )
         5           Fe  tau(   5) = (   0.0000000   0.5000000   0.5000000  )
         6           Fe  tau(   6) = (  -0.5000000   0.0000000   0.5000000  )
         7           Fe  tau(   7) = (   0.0000000   0.0000000   0.5000000  )
         8           Fe  tau(   8) = (  -0.2500000   0.2500000   0.7500000  )

   Crystallographic axes

     site n.     atom                  positions (cryst. coord.)
         1           Fe1 tau(   1) = (  0.0000000  0.0000000  0.0000000  )
         2           Fe  tau(   2) = (  0.5000000  0.0000000  0.0000000  )
         3           Fe  tau(   3) = (  0.0000000  0.5000000  0.0000000  )
         4           Fe  tau(   4) = (  0.0000000  0.0000000  0.5000000  )
         5           Fe  tau(   5) = (  0.5000000  0.5000000  0.0000000  )
         6           Fe  tau(   6) = (  0.0000000  0.5000000  0.5000000  )
         7           Fe  tau(   7) = (  0.5000000  0.0000000  0.5000000  )
         8           Fe  tau(   8) = (  0.5000000  0.5000000  0.5000000  )

     number of k points=    16  Methfessel-Paxton smearing, width (Ry)=  0.0100
                       cart. coord. in units 2pi/alat
        k(    1) = (   0.0000000   0.0000000   0.0000000), wk =   0.0156250
        k(    2) = (   0.0000000  -0.2500000   0.2500000), wk =   0.1875000
        k(    3) = (   0.0000000   0.5000000  -0.5000000), wk =   0.0937500
        k(    4) = (  -0.2500000   0.7500000  -0.5000000), wk =   0.3750000
        k(    5) = (   0.0000000   0.0000000   0.5000000), wk =   0.0937500
        k(    6) = (   0.0000000   0.7500000  -0.2500000), wk =   0.1875000
        k(    7) = (   0.5000000  -0.5000000   0.5000000), wk =   0.0312500
        k(    8) = (   0.0000000   0.0000000  -1.0000000), wk =   0.0156250
        k(    9) = (   0.0000000   0.0000000   0.0000000), wk =   0.0156250
        k(   10) = (   0.0000000  -0.2500000   0.2500000), wk =   0.1875000
        k(   11) = (   0.0000000   0.5000000  -0.5000000), wk =   0.0937500
        k(   12) = (  -0.2500000   0.7500000  -0.5000000), wk =   0.3750000
        k(   13) = (   0.0000000   0.0000000   0.5000000), wk =   0.0937500
        k(   14) = (   0.0000000   0.7500000  -0.2500000), wk =   0.1875000
        k(   15) = (   0.5000000  -0.5000000   0.5000000), wk =   0.0312500
        k(   16) = (   0.0000000   0.0000000  -1.0000000), wk =   0.0156250

                       cryst. coord.
        k(    1) = (   0.0000000   0.0000000   0.0000000), wk =   0.0156250
        k(    2) = (   0.0000000   0.0000000   0.2500000), wk =   0.1875000
        k(    3) = (   0.0000000   0.0000000  -0.5000000), wk =   0.0937500
        k(    4) = (   0.0000000   0.2500000  -0.5000000), wk =   0.3750000
        k(    5) = (   0.2500000   0.2500000   0.2500000), wk =   0.0937500
        k(    6) = (   0.2500000   0.2500000  -0.5000000), wk =   0.1875000
        k(    7) = (   0.2500000  -0.2500000   0.2500000), wk =   0.0312500
        k(    8) = (  -0.5000000  -0.5000000  -0.5000000), wk =   0.0156250
        k(    9) = (   0.0000000   0.0000000   0.0000000), wk =   0.0156250
        k(   10) = (   0.0000000   0.0000000   0.2500000), wk =   0.1875000
        k(   11) = (   0.0000000   0.0000000  -0.5000000), wk =   0.0937500
        k(   12) = (   0.0000000   0.2500000  -0.5000000), wk =   0.3750000
        k(   13) = (   0.2500000   0.2500000   0.2500000), wk =   0.0937500
        k(   14) = (   0.2500000   0.2500000  -0.5000000), wk =   0.1875000
        k(   15) = (   0.2500000  -0.2500000   0.2500000), wk =   0.0312500
        k(   16) = (  -0.5000000  -0.5000000  -0.5000000), wk =   0.0156250

     Dense  grid:    73525 G-vectors     FFT dimensions: (  60,  60,  60)

     Smooth grid:    14171 G-vectors     FFT dimensions: (  36,  36,  36)

     Largest allocated arrays     est. size (Mb)     dimensions
        Kohn-Sham Wavefunctions         0.34 Mb     (     450,   50)
        Atomic Hubbard wavefuncts       0.27 Mb     (     450,   40)
        NL pseudopotentials             0.99 Mb     (     450,  144)
        Each V/rho on FFT grid          1.65 Mb     (   54000,   2)
        Each G-vector array             0.14 Mb     (   18382)
        G-vector shells                 0.00 Mb     (     490)
     Largest temporary arrays     est. size (Mb)     dimensions
        Auxiliary wavefunctions         1.37 Mb     (     450,  200)
        Each subspace H/S matrix        0.61 Mb     (     200,  200)
        Each <psi_i|beta_j> matrix      0.11 Mb     (     144,   50)
        Arrays for rho mixing           6.59 Mb     (   54000,    8)

     The initial density is read from file :
     ./temp/fe.save/charge-density.dat

 --- in v_hubbard ---
Hubbard energy    0.0000
 -------
     Number of +U iterations with fixed ns =  0
     Starting occupations:
 --- enter write_ns ---
 LDA+U parameters:
U( 1)     =  0.00000000
alpha( 1) =  0.00000000
U( 2)     =  0.00000000
alpha( 2) =  0.00000000
atom    1   Tr[ns(na)] (up, down, total) =   4.88168  2.63170  7.51338
   spin  1
    eigenvalues: 
  0.969  0.969  0.969  0.987  0.987
    eigenvectors:
  0.000  0.000  0.000  0.713  0.287
  0.071  0.313  0.616  0.000  0.000
  0.362  0.291  0.347  0.000  0.000
  0.000  0.000  0.000  0.287  0.713
  0.567  0.396  0.037  0.000  0.000
    occupations:
  0.987  0.000  0.000  0.000  0.000
  0.000  0.969  0.000  0.000  0.000
  0.000  0.000  0.969  0.000  0.000
  0.000  0.000  0.000  0.987  0.000
  0.000  0.000  0.000  0.000  0.969
   spin  2
    eigenvalues: 
  0.447  0.447  0.579  0.579  0.579
    eigenvectors:
  0.760  0.240  0.000  0.000  0.000
  0.000  0.000  0.079  0.543  0.377
  0.000  0.000  0.365  0.130  0.504
  0.240  0.760  0.000  0.000  0.000
  0.000  0.000  0.555  0.326  0.118
    occupations:
  0.447  0.000  0.000  0.000  0.000
  0.000  0.579  0.000  0.000  0.000
  0.000  0.000  0.579  0.000  0.000
  0.000  0.000  0.000  0.447  0.000
  0.000  0.000  0.000  0.000  0.579
atomic mag. moment =     2.249974
atom    2   Tr[ns(na)] (up, down, total) =   4.88168  2.63168  7.51337
   spin  1
    eigenvalues: 
  0.969  0.969  0.969  0.987  0.987
    eigenvectors:
  0.000  0.000  0.000  0.588  0.412
  0.333  0.404  0.262  0.000  0.000
  0.333  0.016  0.651  0.000  0.000
  0.000  0.000  0.000  0.412  0.588
  0.333  0.580  0.087  0.000  0.000
    occupations:
  0.987  0.000  0.000  0.000  0.000
  0.000  0.969  0.000  0.000  0.000
  0.000  0.000  0.969  0.000  0.000
  0.000  0.000  0.000  0.987  0.000
  0.000  0.000  0.000  0.000  0.969
   spin  2
    eigenvalues: 
  0.447  0.447  0.579  0.579  0.579
    eigenvectors:
  0.496  0.504  0.000  0.000  0.000
  0.000  0.000  0.381  0.286  0.333
  0.000  0.000  0.024  0.643  0.333
  0.504  0.496  0.000  0.000  0.000
  0.000  0.000  0.595  0.071  0.333
    occupations:
  0.447  0.000  0.000  0.000  0.000
  0.000  0.579  0.000  0.000  0.000
  0.000  0.000  0.579  0.000  0.000
  0.000  0.000  0.000  0.447  0.000
  0.000  0.000  0.000  0.000  0.579
atomic mag. moment =     2.250002
atom    3   Tr[ns(na)] (up, down, total) =   4.88168  2.63168  7.51337
   spin  1
    eigenvalues: 
  0.969  0.969  0.969  0.987  0.987
    eigenvectors:
  0.000  0.000  0.000  0.567  0.433
  0.333  0.011  0.655  0.000  0.000
  0.333  0.569  0.098  0.000  0.000
  0.000  0.000  0.000  0.433  0.567
  0.333  0.420  0.247  0.000  0.000
    occupations:
  0.987  0.000  0.000  0.000  0.000
  0.000  0.969  0.000  0.000  0.000
  0.000  0.000  0.969  0.000  0.000
  0.000  0.000  0.000  0.987  0.000
  0.000  0.000  0.000  0.000  0.969
   spin  2
    eigenvalues: 
  0.447  0.447  0.579  0.579  0.579
    eigenvectors:
  0.586  0.414  0.000  0.000  0.000
  0.000  0.000  0.026  0.641  0.333
  0.000  0.000  0.599  0.068  0.333
  0.414  0.586  0.000  0.000  0.000
  0.000  0.000  0.376  0.291  0.333
    occupations:
  0.447  0.000  0.000  0.000  0.000
  0.000  0.579  0.000  0.000  0.000
  0.000  0.000  0.579  0.000  0.000
  0.000  0.000  0.000  0.447  0.000
  0.000  0.000  0.000  0.000  0.579
atomic mag. moment =     2.250002
atom    4   Tr[ns(na)] (up, down, total) =   4.88168  2.63168  7.51337
   spin  1
    eigenvalues: 
  0.969  0.969  0.969  0.987  0.987
    eigenvectors:
  0.000  0.000  0.000  0.586  0.414
  0.333  0.056  0.610  0.000  0.000
  0.333  0.311  0.355  0.000  0.000
  0.000  0.000  0.000  0.414  0.586
  0.333  0.632  0.034  0.000  0.000
    occupations:
  0.987  0.000  0.000  0.000  0.000
  0.000  0.969  0.000  0.000  0.000
  0.000  0.000  0.969  0.000  0.000
  0.000  0.000  0.000  0.987  0.000
  0.000  0.000  0.000  0.000  0.969
   spin  2
    eigenvalues: 
  0.447  0.447  0.579  0.579  0.579
    eigenvectors:
  0.453  0.547  0.000  0.000  0.000
  0.000  0.000  0.045  0.622  0.333
  0.000  0.000  0.333  0.334  0.333
  0.547  0.453  0.000  0.000  0.000
  0.000  0.000  0.622  0.045  0.333
    occupations:
  0.447  0.000  0.000  0.000  0.000
  0.000  0.579  0.000  0.000  0.000
  0.000  0.000  0.579  0.000  0.000
  0.000  0.000  0.000  0.447  0.000
  0.000  0.000  0.000  0.000  0.579
atomic mag. moment =     2.250002
atom    5   Tr[ns(na)] (up, down, total) =   4.88169  2.63169  7.51338
   spin  1
    eigenvalues: 
  0.969  0.969  0.969  0.987  0.987
    eigenvectors:
  0.000  0.000  0.000  0.250  0.750
  0.062  0.938  0.000  0.000  0.000
  0.000  0.000  1.000  0.000  0.000
  0.000  0.000  0.000  0.750  0.250
  0.938  0.062  0.000  0.000  0.000
    occupations:
  0.987  0.000  0.000  0.000  0.000
  0.000  0.969  0.000  0.000  0.000
  0.000  0.000  0.969  0.000  0.000
  0.000  0.000  0.000  0.987  0.000
  0.000  0.000  0.000  0.000  0.969
   spin  2
    eigenvalues: 
  0.447  0.447  0.579  0.579  0.579
    eigenvectors:
  0.250  0.750  0.000  0.000  0.000
  0.000  0.000  0.000  0.065  0.935
  0.000  0.000  1.000  0.000  0.000
  0.750  0.250  0.000  0.000  0.000
  0.000  0.000  0.000  0.935  0.065
    occupations:
  0.447  0.000  0.000  0.000  0.000
  0.000  0.579  0.000  0.000  0.000
  0.000  0.000  0.579  0.000  0.000
  0.000  0.000  0.000  0.447  0.000
  0.000  0.000  0.000  0.000  0.579
atomic mag. moment =     2.250000
atom    6   Tr[ns(na)] (up, down, total) =   4.88169  2.63169  7.51338
   spin  1
    eigenvalues: 
  0.969  0.969  0.969  0.987  0.987
    eigenvectors:
  0.000  0.000  0.000  0.250  0.750
  0.000  0.000  1.000  0.000  0.000
  0.358  0.642  0.000  0.000  0.000
  0.000  0.000  0.000  0.750  0.250
  0.642  0.358  0.000  0.000  0.000
    occupations:
  0.987  0.000  0.000  0.000  0.000
  0.000  0.969  0.000  0.000  0.000
  0.000  0.000  0.969  0.000  0.000
  0.000  0.000  0.000  0.987  0.000
  0.000  0.000  0.000  0.000  0.969
   spin  2
    eigenvalues: 
  0.447  0.447  0.579  0.579  0.579
    eigenvectors:
  0.250  0.750  0.000  0.000  0.000
  0.000  0.000  1.000  0.000  0.000
  0.000  0.000  0.000  0.332  0.668
  0.750  0.250  0.000  0.000  0.000
  0.000  0.000  0.000  0.668  0.332
    occupations:
  0.447  0.000  0.000  0.000  0.000
  0.000  0.579  0.000  0.000  0.000
  0.000  0.000  0.579  0.000  0.000
  0.000  0.000  0.000  0.447  0.000
  0.000  0.000  0.000  0.000  0.579
atomic mag. moment =     2.250000
atom    7   Tr[ns(na)] (up, down, total) =   4.88169  2.63169  7.51338
   spin  1
    eigenvalues: 
  0.969  0.969  0.969  0.987  0.987
    eigenvectors:
  0.000  0.000  0.000  1.000  0.000
  0.220  0.780  0.000  0.000  0.000
  0.780  0.220  0.000  0.000  0.000
  0.000  0.000  0.000  0.000  1.000
  0.000  0.000  1.000  0.000  0.000
    occupations:
  0.987  0.000  0.000  0.000  0.000
  0.000  0.969  0.000  0.000  0.000
  0.000  0.000  0.969  0.000  0.000
  0.000  0.000  0.000  0.987  0.000
  0.000  0.000  0.000  0.000  0.969
   spin  2
    eigenvalues: 
  0.447  0.447  0.579  0.579  0.579
    eigenvectors:
  1.000  0.000  0.000  0.000  0.000
  0.000  0.000  0.000  0.277  0.723
  0.000  0.000  0.000  0.723  0.277
  0.000  1.000  0.000  0.000  0.000
  0.000  0.000  1.000  0.000  0.000
    occupations:
  0.447  0.000  0.000  0.000  0.000
  0.000  0.579  0.000  0.000  0.000
  0.000  0.000  0.579  0.000  0.000
  0.000  0.000  0.000  0.447  0.000
  0.000  0.000  0.000  0.000  0.579
atomic mag. moment =     2.250000
atom    8   Tr[ns(na)] (up, down, total) =   4.88168  2.63168  7.51337
   spin  1
    eigenvalues: 
  0.969  0.969  0.969  0.987  0.987
    eigenvectors:
  0.000  0.000  0.000  0.500  0.500
  0.333  0.666  0.001  0.000  0.000
  0.333  0.147  0.520  0.000  0.000
  0.000  0.000  0.000  0.500  0.500
  0.333  0.188  0.479  0.000  0.000
    occupations:
  0.987  0.000  0.000  0.000  0.000
  0.000  0.969  0.000  0.000  0.000
  0.000  0.000  0.969  0.000  0.000
  0.000  0.000  0.000  0.987  0.000
  0.000  0.000  0.000  0.000  0.969
   spin  2
    eigenvalues: 
  0.447  0.447  0.579  0.579  0.579
    eigenvectors:
  0.540  0.460  0.000  0.000  0.000
  0.000  0.000  0.665  0.002  0.333
  0.000  0.000  0.136  0.530  0.333
  0.460  0.540  0.000  0.000  0.000
  0.000  0.000  0.199  0.468  0.333
    occupations:
  0.447  0.000  0.000  0.000  0.000
  0.000  0.579  0.000  0.000  0.000
  0.000  0.000  0.579  0.000  0.000
  0.000  0.000  0.000  0.447  0.000
  0.000  0.000  0.000  0.000  0.579
atomic mag. moment =     2.250002
N of occupied +U levels =   60.106981
 --- exit write_ns ---
 Atomic wfc used for LDA+U Projector are NOT orthogonalized
     Starting wfc from file

     total cpu time spent up to now is        2.1 secs

     per-process dynamical memory:    25.7 Mb

     Self-consistent Calculation

     iteration #  1     ecut=    30.00 Ry     beta=0.30
     Davidson diagonalization with overlap
     c_bands:  2 eigenvalues not converged
     c_bands:  2 eigenvalues not converged
     c_bands:  3 eigenvalues not converged
     c_bands:  1 eigenvalues not converged
     c_bands:  4 eigenvalues not converged
     c_bands:  2 eigenvalues not converged
     ethr =  1.72E-12,  avg # of iterations = 12.1
 --- enter write_ns ---
 LDA+U parameters:
U( 1)     =  0.00000000
alpha( 1) =  0.00000000
U( 2)     =  0.00000000
alpha( 2) =  0.00000000
atom    1   Tr[ns(na)] (up, down, total) =   4.88168  2.63163  7.51331
   spin  1
    eigenvalues: 
  0.969  0.969  0.969  0.987  0.987
    eigenvectors:
  0.000  0.000  0.000  0.601  0.399
  0.067  0.354  0.578  0.000  0.000
  0.334  0.287  0.380  0.000  0.000
  0.000  0.000  0.000  0.399  0.601
  0.599  0.359  0.042  0.000  0.000
    occupations:
  0.987  0.000  0.000  0.000  0.000
  0.000  0.969  0.000  0.000  0.000
  0.000  0.000  0.969  0.000  0.000
  0.000  0.000  0.000  0.987  0.000
  0.000  0.000  0.000  0.000  0.969
   spin  2
    eigenvalues: 
  0.447  0.447  0.579  0.579  0.579
    eigenvectors:
  0.478  0.522  0.000  0.000  0.000
  0.000  0.000  0.072  0.402  0.526
  0.000  0.000  0.342  0.241  0.417
  0.522  0.478  0.000  0.000  0.000
  0.000  0.000  0.586  0.357  0.057
    occupations:
  0.447  0.000  0.000  0.000  0.000
  0.000  0.579  0.000  0.000  0.000
  0.000  0.000  0.579  0.000  0.000
  0.000  0.000  0.000  0.447  0.000
  0.000  0.000  0.000  0.000  0.579
atomic mag. moment =     2.250049
atom    2   Tr[ns(na)] (up, down, total) =   4.88170  2.63180  7.51350
   spin  1
    eigenvalues: 
  0.969  0.969  0.969  0.987  0.987
    eigenvectors:
  0.000  0.000  0.000  0.671  0.329
  0.478  0.188  0.333  0.000  0.000
  0.001  0.666  0.333  0.000  0.000
  0.000  0.000  0.000  0.329  0.671
  0.521  0.146  0.333  0.000  0.000
    occupations:
  0.987  0.000  0.000  0.000  0.000
  0.000  0.969  0.000  0.000  0.000
  0.000  0.000  0.969  0.000  0.000
  0.000  0.000  0.000  0.987  0.000
  0.000  0.000  0.000  0.000  0.969
   spin  2
    eigenvalues: 
  0.447  0.447  0.579  0.579  0.579
    eigenvectors:
  0.573  0.427  0.000  0.000  0.000
  0.000  0.000  0.333  0.471  0.195
  0.000  0.000  0.333  0.002  0.665
  0.427  0.573  0.000  0.000  0.000
  0.000  0.000  0.333  0.527  0.140
    occupations:
  0.447  0.000  0.000  0.000  0.000
  0.000  0.579  0.000  0.000  0.000
  0.000  0.000  0.579  0.000  0.000
  0.000  0.000  0.000  0.447  0.000
  0.000  0.000  0.000  0.000  0.579
atomic mag. moment =     2.249895
atom    3   Tr[ns(na)] (up, down, total) =   4.88170  2.63180  7.51350
   spin  1
    eigenvalues: 
  0.969  0.969  0.969  0.987  0.987
    eigenvectors:
  0.000  0.000  0.000  0.649  0.351
  0.014  0.652  0.333  0.000  0.000
  0.577  0.090  0.333  0.000  0.000
  0.000  0.000  0.000  0.351  0.649
  0.409  0.258  0.333  0.000  0.000
    occupations:
  0.987  0.000  0.000  0.000  0.000
  0.000  0.969  0.000  0.000  0.000
  0.000  0.000  0.969  0.000  0.000
  0.000  0.000  0.000  0.987  0.000
  0.000  0.000  0.000  0.000  0.969
   spin  2
    eigenvalues: 
  0.447  0.447  0.579  0.579  0.579
    eigenvectors:
  0.655  0.345  0.000  0.000  0.000
  0.000  0.000  0.333  0.015  0.651
  0.000  0.000  0.333  0.579  0.088
  0.345  0.655  0.000  0.000  0.000
  0.000  0.000  0.333  0.406  0.261
    occupations:
  0.447  0.000  0.000  0.000  0.000
  0.000  0.579  0.000  0.000  0.000
  0.000  0.000  0.579  0.000  0.000
  0.000  0.000  0.000  0.447  0.000
  0.000  0.000  0.000  0.000  0.579
atomic mag. moment =     2.249895
atom    4   Tr[ns(na)] (up, down, total) =   4.88170  2.63180  7.51350
   spin  1
    eigenvalues: 
  0.969  0.969  0.969  0.987  0.987
    eigenvectors:
  0.000  0.000  0.000  0.722  0.278
  0.055  0.612  0.333  0.000  0.000
  0.314  0.353  0.333  0.000  0.000
  0.000  0.000  0.000  0.278  0.722
  0.631  0.035  0.333  0.000  0.000
    occupations:
  0.987  0.000  0.000  0.000  0.000
  0.000  0.969  0.000  0.000  0.000
  0.000  0.000  0.969  0.000  0.000
  0.000  0.000  0.000  0.987  0.000
  0.000  0.000  0.000  0.000  0.969
   spin  2
    eigenvalues: 
  0.447  0.447  0.579  0.579  0.579
    eigenvectors:
  0.628  0.372  0.000  0.000  0.000
  0.000  0.000  0.333  0.058  0.609
  0.000  0.000  0.333  0.309  0.358
  0.372  0.628  0.000  0.000  0.000
  0.000  0.000  0.333  0.634  0.033
    occupations:
  0.447  0.000  0.000  0.000  0.000
  0.000  0.579  0.000  0.000  0.000
  0.000  0.000  0.579  0.000  0.000
  0.000  0.000  0.000  0.447  0.000
  0.000  0.000  0.000  0.000  0.579
atomic mag. moment =     2.249895
atom    5   Tr[ns(na)] (up, down, total) =   4.88167  2.63155  7.51322
   spin  1
    eigenvalues: 
  0.969  0.969  0.969  0.987  0.987
    eigenvectors:
  0.000  0.000  0.000  0.750  0.250
  0.000  0.068  0.932  0.000  0.000
  1.000  0.000  0.000  0.000  0.000
  0.000  0.000  0.000  0.250  0.750
  0.000  0.932  0.068  0.000  0.000
    occupations:
  0.987  0.000  0.000  0.000  0.000
  0.000  0.969  0.000  0.000  0.000
  0.000  0.000  0.969  0.000  0.000
  0.000  0.000  0.000  0.987  0.000
  0.000  0.000  0.000  0.000  0.969
   spin  2
    eigenvalues: 
  0.447  0.447  0.579  0.579  0.579
    eigenvectors:
  0.250  0.750  0.000  0.000  0.000
  0.000  0.000  0.000  0.079  0.921
  0.000  0.000  1.000  0.000  0.000
  0.750  0.250  0.000  0.000  0.000
  0.000  0.000  0.000  0.921  0.079
    occupations:
  0.447  0.000  0.000  0.000  0.000
  0.000  0.579  0.000  0.000  0.000
  0.000  0.000  0.579  0.000  0.000
  0.000  0.000  0.000  0.447  0.000
  0.000  0.000  0.000  0.000  0.579
atomic mag. moment =     2.250116
atom    6   Tr[ns(na)] (up, down, total) =   4.88167  2.63155  7.51322
   spin  1
    eigenvalues: 
  0.969  0.969  0.969  0.987  0.987
    eigenvectors:
  0.000  0.000  0.000  0.750  0.250
  1.000  0.000  0.000  0.000  0.000
  0.000  0.330  0.670  0.000  0.000
  0.000  0.000  0.000  0.250  0.750
  0.000  0.670  0.330  0.000  0.000
    occupations:
  0.987  0.000  0.000  0.000  0.000
  0.000  0.969  0.000  0.000  0.000
  0.000  0.000  0.969  0.000  0.000
  0.000  0.000  0.000  0.987  0.000
  0.000  0.000  0.000  0.000  0.969
   spin  2
    eigenvalues: 
  0.447  0.447  0.579  0.579  0.579
    eigenvectors:
  0.250  0.750  0.000  0.000  0.000
  0.000  0.000  1.000  0.000  0.000
  0.000  0.000  0.000  0.357  0.643
  0.750  0.250  0.000  0.000  0.000
  0.000  0.000  0.000  0.643  0.357
    occupations:
  0.447  0.000  0.000  0.000  0.000
  0.000  0.579  0.000  0.000  0.000
  0.000  0.000  0.579  0.000  0.000
  0.000  0.000  0.000  0.447  0.000
  0.000  0.000  0.000  0.000  0.579
atomic mag. moment =     2.250116
atom    7   Tr[ns(na)] (up, down, total) =   4.88167  2.63155  7.51322
   spin  1
    eigenvalues: 
  0.969  0.969  0.969  0.987  0.987
    eigenvectors:
  0.000  0.000  0.000  0.000  1.000
  0.000  0.232  0.768  0.000  0.000
  0.000  0.768  0.232  0.000  0.000
  0.000  0.000  0.000  1.000  0.000
  1.000  0.000  0.000  0.000  0.000
    occupations:
  0.987  0.000  0.000  0.000  0.000
  0.000  0.969  0.000  0.000  0.000
  0.000  0.000  0.969  0.000  0.000
  0.000  0.000  0.000  0.987  0.000
  0.000  0.000  0.000  0.000  0.969
   spin  2
    eigenvalues: 
  0.447  0.447  0.579  0.579  0.579
    eigenvectors:
  1.000  0.000  0.000  0.000  0.000
  0.000  0.000  0.000  0.232  0.768
  0.000  0.000  0.000  0.768  0.232
  0.000  1.000  0.000  0.000  0.000
  0.000  0.000  1.000  0.000  0.000
    occupations:
  0.447  0.000  0.000  0.000  0.000
  0.000  0.579  0.000  0.000  0.000
  0.000  0.000  0.579  0.000  0.000
  0.000  0.000  0.000  0.447  0.000
  0.000  0.000  0.000  0.000  0.579
atomic mag. moment =     2.250116
atom    8   Tr[ns(na)] (up, down, total) =   4.88170  2.63180  7.51350
   spin  1
    eigenvalues: 
  0.969  0.969  0.969  0.987  0.987
    eigenvectors:
  0.000  0.000  0.000  0.653  0.347
  0.663  0.004  0.333  0.000  0.000
  0.126  0.541  0.333  0.000  0.000
  0.000  0.000  0.000  0.347  0.653
  0.211  0.455  0.333  0.000  0.000
    occupations:
  0.987  0.000  0.000  0.000  0.000
  0.000  0.969  0.000  0.000  0.000
  0.000  0.000  0.969  0.000  0.000
  0.000  0.000  0.000  0.987  0.000
  0.000  0.000  0.000  0.000  0.969
   spin  2
    eigenvalues: 
  0.447  0.447  0.579  0.579  0.579
    eigenvectors:
  0.644  0.356  0.000  0.000  0.000
  0.000  0.000  0.333  0.661  0.005
  0.000  0.000  0.333  0.118  0.549
  0.356  0.644  0.000  0.000  0.000
  0.000  0.000  0.333  0.221  0.446
    occupations:
  0.447  0.000  0.000  0.000  0.000
  0.000  0.579  0.000  0.000  0.000
  0.000  0.000  0.579  0.000  0.000
  0.000  0.000  0.000  0.447  0.000
  0.000  0.000  0.000  0.000  0.579
atomic mag. moment =     2.249895
N of occupied +U levels =   60.106955
 --- exit write_ns ---
 --- in v_hubbard ---
Hubbard energy    0.0000
 -------
 
     Magnetic moment per site:
     atom:    1    charge:    6.4776    magn:    2.5244    constr:    0.0000
     atom:    2    charge:    6.4777    magn:    2.5244    constr:    0.0000
     atom:    3    charge:    6.4777    magn:    2.5244    constr:    0.0000
     atom:    4    charge:    6.4777    magn:    2.5244    constr:    0.0000
     atom:    5    charge:    6.4776    magn:    2.5244    constr:    0.0000
     atom:    6    charge:    6.4776    magn:    2.5244    constr:    0.0000
     atom:    7    charge:    6.4776    magn:    2.5244    constr:    0.0000
     atom:    8    charge:    6.4777    magn:    2.5244    constr:    0.0000

     total cpu time spent up to now is       11.9 secs

     total energy              =    -446.41430224 Ry
     Harris-Foulkes estimate   =    -446.41430228 Ry
     estimated scf accuracy    <       0.00000008 Ry

     total magnetization       =    19.54 Bohr mag/cell
     absolute magnetization    =    20.99 Bohr mag/cell

     iteration #  2     ecut=    30.00 Ry     beta=0.30
     Davidson diagonalization with overlap
     ethr =  1.28E-10,  avg # of iterations =  2.2
 --- enter write_ns ---
 LDA+U parameters:
U( 1)     =  0.00000000
alpha( 1) =  0.00000000
U( 2)     =  0.00000000
alpha( 2) =  0.00000000
atom    1   Tr[ns(na)] (up, down, total) =   4.88168  2.63188  7.51356
   spin  1
    eigenvalues: 
  0.969  0.969  0.969  0.987  0.987
    eigenvectors:
  0.000  0.000  0.000  0.668  0.332
  0.071  0.461  0.467  0.000  0.000
  0.334  0.207  0.459  0.000  0.000
  0.000  0.000  0.000  0.332  0.668
  0.595  0.332  0.073  0.000  0.000
    occupations:
  0.987  0.000  0.000  0.000  0.000
  0.000  0.969  0.000  0.000  0.000
  0.000  0.000  0.969  0.000  0.000
  0.000  0.000  0.000  0.987  0.000
  0.000  0.000  0.000  0.000  0.969
   spin  2
    eigenvalues: 
  0.447  0.447  0.579  0.579  0.579
    eigenvectors:
  0.572  0.428  0.000  0.000  0.000
  0.000  0.000  0.075  0.482  0.444
  0.000  0.000  0.351  0.180  0.469
  0.428  0.572  0.000  0.000  0.000
  0.000  0.000  0.575  0.338  0.087
    occupations:
  0.447  0.000  0.000  0.000  0.000
  0.000  0.579  0.000  0.000  0.000
  0.000  0.000  0.579  0.000  0.000
  0.000  0.000  0.000  0.447  0.000
  0.000  0.000  0.000  0.000  0.579
atomic mag. moment =     2.249802
atom    2   Tr[ns(na)] (up, down, total) =   4.88164  2.63132  7.51296
   spin  1
    eigenvalues: 
  0.969  0.969  0.969  0.987  0.987
    eigenvectors:
  0.000  0.000  0.000  0.575  0.425
  0.333  0.389  0.277  0.000  0.000
  0.333  0.021  0.646  0.000  0.000
  0.000  0.000  0.000  0.425  0.575
  0.333  0.590  0.077  0.000  0.000
    occupations:
  0.987  0.000  0.000  0.000  0.000
  0.000  0.969  0.000  0.000  0.000
  0.000  0.000  0.969  0.000  0.000
  0.000  0.000  0.000  0.987  0.000
  0.000  0.000  0.000  0.000  0.969
   spin  2
    eigenvalues: 
  0.447  0.447  0.579  0.579  0.579
    eigenvectors:
  0.448  0.552  0.000  0.000  0.000
  0.000  0.000  0.462  0.204  0.333
  0.000  0.000  0.003  0.664  0.333
  0.552  0.448  0.000  0.000  0.000
  0.000  0.000  0.535  0.132  0.333
    occupations:
  0.447  0.000  0.000  0.000  0.000
  0.000  0.579  0.000  0.000  0.000
  0.000  0.000  0.579  0.000  0.000
  0.000  0.000  0.000  0.447  0.000
  0.000  0.000  0.000  0.000  0.579
atomic mag. moment =     2.250327
atom    3   Tr[ns(na)] (up, down, total) =   4.88164  2.63132  7.51296
   spin  1
    eigenvalues: 
  0.969  0.969  0.969  0.987  0.987
    eigenvectors:
  0.000  0.000  0.000  0.515  0.485
  0.333  0.013  0.654  0.000  0.000
  0.333  0.573  0.094  0.000  0.000
  0.000  0.000  0.000  0.485  0.515
  0.333  0.414  0.253  0.000  0.000
    occupations:
  0.987  0.000  0.000  0.000  0.000
  0.000  0.969  0.000  0.000  0.000
  0.000  0.000  0.969  0.000  0.000
  0.000  0.000  0.000  0.987  0.000
  0.000  0.000  0.000  0.000  0.969
   spin  2
    eigenvalues: 
  0.447  0.447  0.579  0.579  0.579
    eigenvectors:
  0.697  0.303  0.000  0.000  0.000
  0.000  0.000  0.021  0.646  0.333
  0.000  0.000  0.590  0.076  0.333
  0.303  0.697  0.000  0.000  0.000
  0.000  0.000  0.389  0.278  0.333
    occupations:
  0.447  0.000  0.000  0.000  0.000
  0.000  0.579  0.000  0.000  0.000
  0.000  0.000  0.579  0.000  0.000
  0.000  0.000  0.000  0.447  0.000
  0.000  0.000  0.000  0.000  0.579
atomic mag. moment =     2.250327
atom    4   Tr[ns(na)] (up, down, total) =   4.88164  2.63132  7.51296
   spin  1
    eigenvalues: 
  0.969  0.969  0.969  0.987  0.987
    eigenvectors:
  0.000  0.000  0.000  0.512  0.488
  0.333  0.060  0.607  0.000  0.000
  0.333  0.305  0.361  0.000  0.000
  0.000  0.000  0.000  0.488  0.512
  0.333  0.635  0.032  0.000  0.000
    occupations:
  0.987  0.000  0.000  0.000  0.000
  0.000  0.969  0.000  0.000  0.000
  0.000  0.000  0.969  0.000  0.000
  0.000  0.000  0.000  0.987  0.000
  0.000  0.000  0.000  0.000  0.969
   spin  2
    eigenvalues: 
  0.447  0.447  0.579  0.579  0.579
    eigenvectors:
  0.571  0.429  0.000  0.000  0.000
  0.000  0.000  0.058  0.608  0.333
  0.000  0.000  0.308  0.359  0.333
  0.429  0.571  0.000  0.000  0.000
  0.000  0.000  0.634  0.033  0.333
    occupations:
  0.447  0.000  0.000  0.000  0.000
  0.000  0.579  0.000  0.000  0.000
  0.000  0.000  0.579  0.000  0.000
  0.000  0.000  0.000  0.447  0.000
  0.000  0.000  0.000  0.000  0.579
atomic mag. moment =     2.250327
atom    5   Tr[ns(na)] (up, down, total) =   4.88174  2.63212  7.51386
   spin  1
    eigenvalues: 
  0.969  0.969  0.969  0.987  0.987
    eigenvectors:
  0.000  0.000  0.000  0.250  0.750
  0.069  0.931  0.000  0.000  0.000
  0.000  0.000  1.000  0.000  0.000
  0.000  0.000  0.000  0.750  0.250
  0.931  0.069  0.000  0.000  0.000
    occupations:
  0.987  0.000  0.000  0.000  0.000
  0.000  0.969  0.000  0.000  0.000
  0.000  0.000  0.969  0.000  0.000
  0.000  0.000  0.000  0.987  0.000
  0.000  0.000  0.000  0.000  0.969
   spin  2
    eigenvalues: 
  0.447  0.447  0.579  0.579  0.579
    eigenvectors:
  0.750  0.250  0.000  0.000  0.000
  0.000  0.000  0.078  0.922  0.000
  0.000  0.000  0.000  0.000  1.000
  0.250  0.750  0.000  0.000  0.000
  0.000  0.000  0.922  0.078  0.000
    occupations:
  0.447  0.000  0.000  0.000  0.000
  0.000  0.579  0.000  0.000  0.000
  0.000  0.000  0.579  0.000  0.000
  0.000  0.000  0.000  0.447  0.000
  0.000  0.000  0.000  0.000  0.579
atomic mag. moment =     2.249624
atom    6   Tr[ns(na)] (up, down, total) =   4.88174  2.63212  7.51386
   spin  1
    eigenvalues: 
  0.969  0.969  0.969  0.987  0.987
    eigenvectors:
  0.000  0.000  0.000  0.250  0.750
  0.000  0.000  1.000  0.000  0.000
  0.332  0.668  0.000  0.000  0.000
  0.000  0.000  0.000  0.750  0.250
  0.668  0.332  0.000  0.000  0.000
    occupations:
  0.987  0.000  0.000  0.000  0.000
  0.000  0.969  0.000  0.000  0.000
  0.000  0.000  0.969  0.000  0.000
  0.000  0.000  0.000  0.987  0.000
  0.000  0.000  0.000  0.000  0.969
   spin  2
    eigenvalues: 
  0.447  0.447  0.579  0.579  0.579
    eigenvectors:
  0.750  0.250  0.000  0.000  0.000
  0.000  0.000  0.000  0.000  1.000
  0.000  0.000  0.352  0.648  0.000
  0.250  0.750  0.000  0.000  0.000
  0.000  0.000  0.648  0.352  0.000
    occupations:
  0.447  0.000  0.000  0.000  0.000
  0.000  0.579  0.000  0.000  0.000
  0.000  0.000  0.579  0.000  0.000
  0.000  0.000  0.000  0.447  0.000
  0.000  0.000  0.000  0.000  0.579
atomic mag. moment =     2.249624
atom    7   Tr[ns(na)] (up, down, total) =   4.88174  2.63212  7.51386
   spin  1
    eigenvalues: 
  0.969  0.969  0.969  0.987  0.987
    eigenvectors:
  0.000  0.000  0.000  1.000  0.000
  0.222  0.778  0.000  0.000  0.000
  0.778  0.222  0.000  0.000  0.000
  0.000  0.000  0.000  0.000  1.000
  0.000  0.000  1.000  0.000  0.000
    occupations:
  0.987  0.000  0.000  0.000  0.000
  0.000  0.969  0.000  0.000  0.000
  0.000  0.000  0.969  0.000  0.000
  0.000  0.000  0.000  0.987  0.000
  0.000  0.000  0.000  0.000  0.969
   spin  2
    eigenvalues: 
  0.447  0.447  0.579  0.579  0.579
    eigenvectors:
  0.000  1.000  0.000  0.000  0.000
  0.000  0.000  0.252  0.748  0.000
  0.000  0.000  0.748  0.252  0.000
  1.000  0.000  0.000  0.000  0.000
  0.000  0.000  0.000  0.000  1.000
    occupations:
  0.447  0.000  0.000  0.000  0.000
  0.000  0.579  0.000  0.000  0.000
  0.000  0.000  0.579  0.000  0.000
  0.000  0.000  0.000  0.447  0.000
  0.000  0.000  0.000  0.000  0.579
atomic mag. moment =     2.249624
atom    8   Tr[ns(na)] (up, down, total) =   4.88164  2.63132  7.51296
   spin  1
    eigenvalues: 
  0.969  0.969  0.969  0.987  0.987
    eigenvectors:
  0.000  0.000  0.000  0.534  0.466
  0.333  0.657  0.009  0.000  0.000
  0.333  0.103  0.563  0.000  0.000
  0.000  0.000  0.000  0.466  0.534
  0.333  0.239  0.427  0.000  0.000
    occupations:
  0.987  0.000  0.000  0.000  0.000
  0.000  0.969  0.000  0.000  0.000
  0.000  0.000  0.969  0.000  0.000
  0.000  0.000  0.000  0.987  0.000
  0.000  0.000  0.000  0.000  0.969
   spin  2
    eigenvalues: 
  0.447  0.447  0.579  0.579  0.579
    eigenvectors:
  0.663  0.337  0.000  0.000  0.000
  0.000  0.000  0.653  0.013  0.333
  0.000  0.000  0.092  0.575  0.333
  0.337  0.663  0.000  0.000  0.000
  0.000  0.000  0.255  0.412  0.333
    occupations:
  0.447  0.000  0.000  0.000  0.000
  0.000  0.579  0.000  0.000  0.000
  0.000  0.000  0.579  0.000  0.000
  0.000  0.000  0.000  0.447  0.000
  0.000  0.000  0.000  0.000  0.579
atomic mag. moment =     2.250327
N of occupied +U levels =   60.106972
 --- exit write_ns ---
 --- in v_hubbard ---
Hubbard energy    0.0000
 -------
 
     Magnetic moment per site:
     atom:    1    charge:    6.4776    magn:    2.5244    constr:    0.0000
     atom:    2    charge:    6.4776    magn:    2.5244    constr:    0.0000
     atom:    3    charge:    6.4776    magn:    2.5244    constr:    0.0000
     atom:    4    charge:    6.4776    magn:    2.5244    constr:    0.0000
     atom:    5    charge:    6.4776    magn:    2.5244    constr:    0.0000
     atom:    6    charge:    6.4776    magn:    2.5244    constr:    0.0000
     atom:    7    charge:    6.4776    magn:    2.5244    constr:    0.0000
     atom:    8    charge:    6.4776    magn:    2.5244    constr:    0.0000

     total cpu time spent up to now is       16.4 secs

     total energy              =    -446.41430222 Ry
     Harris-Foulkes estimate   =    -446.41430233 Ry
     estimated scf accuracy    <       0.00000089 Ry

     total magnetization       =    19.54 Bohr mag/cell
     absolute magnetization    =    20.99 Bohr mag/cell

     iteration #  3     ecut=    30.00 Ry     beta=0.30
     Davidson diagonalization with overlap
     ethr =  1.28E-10,  avg # of iterations =  1.7
 --- enter write_ns ---
 LDA+U parameters:
U( 1)     =  0.00000000
alpha( 1) =  0.00000000
U( 2)     =  0.00000000
alpha( 2) =  0.00000000
atom    1   Tr[ns(na)] (up, down, total) =   4.88169  2.63171  7.51340
   spin  1
    eigenvalues: 
  0.969  0.969  0.969  0.987  0.987
    eigenvectors:
  0.000  0.000  0.000  0.589  0.411
  0.068  0.366  0.567  0.000  0.000
  0.354  0.264  0.382  0.000  0.000
  0.000  0.000  0.000  0.411  0.589
  0.578  0.371  0.051  0.000  0.000
    occupations:
  0.987  0.000  0.000  0.000  0.000
  0.000  0.969  0.000  0.000  0.000
  0.000  0.000  0.969  0.000  0.000
  0.000  0.000  0.000  0.987  0.000
  0.000  0.000  0.000  0.000  0.969
   spin  2
    eigenvalues: 
  0.447  0.447  0.579  0.579  0.579
    eigenvectors:
  0.696  0.304  0.000  0.000  0.000
  0.000  0.000  0.073  0.392  0.536
  0.000  0.000  0.346  0.245  0.409
  0.304  0.696  0.000  0.000  0.000
  0.000  0.000  0.581  0.364  0.055
    occupations:
  0.447  0.000  0.000  0.000  0.000
  0.000  0.579  0.000  0.000  0.000
  0.000  0.000  0.579  0.000  0.000
  0.000  0.000  0.000  0.447  0.000
  0.000  0.000  0.000  0.000  0.579
atomic mag. moment =     2.249974
atom    2   Tr[ns(na)] (up, down, total) =   4.88168  2.63168  7.51337
   spin  1
    eigenvalues: 
  0.969  0.969  0.969  0.987  0.987
    eigenvectors:
  0.000  0.000  0.000  0.693  0.307
  0.385  0.282  0.333  0.000  0.000
  0.022  0.644  0.333  0.000  0.000
  0.000  0.000  0.000  0.307  0.693
  0.593  0.074  0.333  0.000  0.000
    occupations:
  0.987  0.000  0.000  0.000  0.000
  0.000  0.969  0.000  0.000  0.000
  0.000  0.000  0.969  0.000  0.000
  0.000  0.000  0.000  0.987  0.000
  0.000  0.000  0.000  0.000  0.969
   spin  2
    eigenvalues: 
  0.447  0.447  0.579  0.579  0.579
    eigenvectors:
  0.607  0.393  0.000  0.000  0.000
  0.000  0.000  0.333  0.404  0.263
  0.000  0.000  0.333  0.016  0.651
  0.393  0.607  0.000  0.000  0.000
  0.000  0.000  0.333  0.580  0.087
    occupations:
  0.447  0.000  0.000  0.000  0.000
  0.000  0.579  0.000  0.000  0.000
  0.000  0.000  0.579  0.000  0.000
  0.000  0.000  0.000  0.447  0.000
  0.000  0.000  0.000  0.000  0.579
atomic mag. moment =     2.249999
atom    3   Tr[ns(na)] (up, down, total) =   4.88168  2.63168  7.51337
   spin  1
    eigenvalues: 
  0.969  0.969  0.969  0.987  0.987
    eigenvectors:
  0.000  0.000  0.000  0.662  0.338
  0.022  0.644  0.333  0.000  0.000
  0.593  0.074  0.333  0.000  0.000
  0.000  0.000  0.000  0.338  0.662
  0.385  0.282  0.333  0.000  0.000
    occupations:
  0.987  0.000  0.000  0.000  0.000
  0.000  0.969  0.000  0.000  0.000
  0.000  0.000  0.969  0.000  0.000
  0.000  0.000  0.000  0.987  0.000
  0.000  0.000  0.000  0.000  0.969
   spin  2
    eigenvalues: 
  0.447  0.447  0.579  0.579  0.579
    eigenvectors:
  0.630  0.370  0.000  0.000  0.000
  0.000  0.000  0.333  0.015  0.652
  0.000  0.000  0.333  0.577  0.089
  0.370  0.630  0.000  0.000  0.000
  0.000  0.000  0.333  0.408  0.258
    occupations:
  0.447  0.000  0.000  0.000  0.000
  0.000  0.579  0.000  0.000  0.000
  0.000  0.000  0.579  0.000  0.000
  0.000  0.000  0.000  0.447  0.000
  0.000  0.000  0.000  0.000  0.579
atomic mag. moment =     2.249999
atom    4   Tr[ns(na)] (up, down, total) =   4.88168  2.63168  7.51337
   spin  1
    eigenvalues: 
  0.969  0.969  0.969  0.987  0.987
    eigenvectors:
  0.000  0.000  0.000  0.581  0.419
  0.055  0.611  0.333  0.000  0.000
  0.313  0.353  0.333  0.000  0.000
  0.000  0.000  0.000  0.419  0.581
  0.632  0.035  0.333  0.000  0.000
    occupations:
  0.987  0.000  0.000  0.000  0.000
  0.000  0.969  0.000  0.000  0.000
  0.000  0.000  0.969  0.000  0.000
  0.000  0.000  0.000  0.987  0.000
  0.000  0.000  0.000  0.000  0.969
   spin  2
    eigenvalues: 
  0.447  0.447  0.579  0.579  0.579
    eigenvectors:
  0.615  0.385  0.000  0.000  0.000
  0.000  0.000  0.333  0.058  0.609
  0.000  0.000  0.333  0.309  0.358
  0.385  0.615  0.000  0.000  0.000
  0.000  0.000  0.333  0.634  0.033
    occupations:
  0.447  0.000  0.000  0.000  0.000
  0.000  0.579  0.000  0.000  0.000
  0.000  0.000  0.579  0.000  0.000
  0.000  0.000  0.000  0.447  0.000
  0.000  0.000  0.000  0.000  0.579
atomic mag. moment =     2.249999
atom    5   Tr[ns(na)] (up, down, total) =   4.88168  2.63168  7.51337
   spin  1
    eigenvalues: 
  0.969  0.969  0.969  0.987  0.987
    eigenvectors:
  0.000  0.000  0.000  0.750  0.250
  0.058  0.942  0.000  0.000  0.000
  0.000  0.000  1.000  0.000  0.000
  0.000  0.000  0.000  0.250  0.750
  0.942  0.058  0.000  0.000  0.000
    occupations:
  0.987  0.000  0.000  0.000  0.000
  0.000  0.969  0.000  0.000  0.000
  0.000  0.000  0.969  0.000  0.000
  0.000  0.000  0.000  0.987  0.000
  0.000  0.000  0.000  0.000  0.969
   spin  2
    eigenvalues: 
  0.447  0.447  0.579  0.579  0.579
    eigenvectors:
  0.250  0.750  0.000  0.000  0.000
  0.000  0.000  0.000  0.082  0.918
  0.000  0.000  1.000  0.000  0.000
  0.750  0.250  0.000  0.000  0.000
  0.000  0.000  0.000  0.918  0.082
    occupations:
  0.447  0.000  0.000  0.000  0.000
  0.000  0.579  0.000  0.000  0.000
  0.000  0.000  0.579  0.000  0.000
  0.000  0.000  0.000  0.447  0.000
  0.000  0.000  0.000  0.000  0.579
atomic mag. moment =     2.250003
atom    6   Tr[ns(na)] (up, down, total) =   4.88168  2.63168  7.51337
   spin  1
    eigenvalues: 
  0.969  0.969  0.969  0.987  0.987
    eigenvectors:
  0.000  0.000  0.000  0.750  0.250
  0.000  0.000  1.000  0.000  0.000
  0.353  0.647  0.000  0.000  0.000
  0.000  0.000  0.000  0.250  0.750
  0.647  0.353  0.000  0.000  0.000
    occupations:
  0.987  0.000  0.000  0.000  0.000
  0.000  0.969  0.000  0.000  0.000
  0.000  0.000  0.969  0.000  0.000
  0.000  0.000  0.000  0.987  0.000
  0.000  0.000  0.000  0.000  0.969
   spin  2
    eigenvalues: 
  0.447  0.447  0.579  0.579  0.579
    eigenvectors:
  0.250  0.750  0.000  0.000  0.000
  0.000  0.000  1.000  0.000  0.000
  0.000  0.000  0.000  0.351  0.649
  0.750  0.250  0.000  0.000  0.000
  0.000  0.000  0.000  0.649  0.351
    occupations:
  0.447  0.000  0.000  0.000  0.000
  0.000  0.579  0.000  0.000  0.000
  0.000  0.000  0.579  0.000  0.000
  0.000  0.000  0.000  0.447  0.000
  0.000  0.000  0.000  0.000  0.579
atomic mag. moment =     2.250003
atom    7   Tr[ns(na)] (up, down, total) =   4.88168  2.63168  7.51337
   spin  1
    eigenvalues: 
  0.969  0.969  0.969  0.987  0.987
    eigenvectors:
  0.000  0.000  0.000  0.000  1.000
  0.223  0.777  0.000  0.000  0.000
  0.777  0.223  0.000  0.000  0.000
  0.000  0.000  0.000  1.000  0.000
  0.000  0.000  1.000  0.000  0.000
    occupations:
  0.987  0.000  0.000  0.000  0.000
  0.000  0.969  0.000  0.000  0.000
  0.000  0.000  0.969  0.000  0.000
  0.000  0.000  0.000  0.987  0.000
  0.000  0.000  0.000  0.000  0.969
   spin  2
    eigenvalues: 
  0.447  0.447  0.579  0.579  0.579
    eigenvectors:
  1.000  0.000  0.000  0.000  0.000
  0.000  0.000  0.000  0.272  0.728
  0.000  0.000  0.000  0.728  0.272
  0.000  1.000  0.000  0.000  0.000
  0.000  0.000  1.000  0.000  0.000
    occupations:
  0.447  0.000  0.000  0.000  0.000
  0.000  0.579  0.000  0.000  0.000
  0.000  0.000  0.579  0.000  0.000
  0.000  0.000  0.000  0.447  0.000
  0.000  0.000  0.000  0.000  0.579
atomic mag. moment =     2.250003
atom    8   Tr[ns(na)] (up, down, total) =   4.88168  2.63168  7.51337
   spin  1
    eigenvalues: 
  0.969  0.969  0.969  0.987  0.987
    eigenvectors:
  0.000  0.000  0.000  0.609  0.391
  0.660  0.006  0.333  0.000  0.000
  0.114  0.552  0.333  0.000  0.000
  0.000  0.000  0.000  0.391  0.609
  0.225  0.442  0.333  0.000  0.000
    occupations:
  0.987  0.000  0.000  0.000  0.000
  0.000  0.969  0.000  0.000  0.000
  0.000  0.000  0.969  0.000  0.000
  0.000  0.000  0.000  0.987  0.000
  0.000  0.000  0.000  0.000  0.969
   spin  2
    eigenvalues: 
  0.447  0.447  0.579  0.579  0.579
    eigenvectors:
  0.691  0.309  0.000  0.000  0.000
  0.000  0.000  0.333  0.663  0.004
  0.000  0.000  0.333  0.123  0.543
  0.309  0.691  0.000  0.000  0.000
  0.000  0.000  0.333  0.214  0.452
    occupations:
  0.447  0.000  0.000  0.000  0.000
  0.000  0.579  0.000  0.000  0.000
  0.000  0.000  0.579  0.000  0.000
  0.000  0.000  0.000  0.447  0.000
  0.000  0.000  0.000  0.000  0.579
atomic mag. moment =     2.249999
N of occupied +U levels =   60.106973
 --- exit write_ns ---
 --- in v_hubbard ---
Hubbard energy    0.0000
 -------
 
     Magnetic moment per site:
     atom:    1    charge:    6.4777    magn:    2.5244    constr:    0.0000
     atom:    2    charge:    6.4776    magn:    2.5244    constr:    0.0000
     atom:    3    charge:    6.4776    magn:    2.5244    constr:    0.0000
     atom:    4    charge:    6.4776    magn:    2.5244    constr:    0.0000
     atom:    5    charge:    6.4776    magn:    2.5244    constr:    0.0000
     atom:    6    charge:    6.4776    magn:    2.5244    constr:    0.0000
     atom:    7    charge:    6.4776    magn:    2.5244    constr:    0.0000
     atom:    8    charge:    6.4776    magn:    2.5244    constr:    0.0000

     total cpu time spent up to now is       20.7 secs

     End of self-consistent calculation

 ------ SPIN UP ------------


          k = 0.0000 0.0000 0.0000 (  1745 PWs)   bands (ev):

     4.7438   8.0765   8.0765   8.0765   8.0765   8.0765   8.0765   8.1748
     8.1748   9.4654   9.4654   9.4654   9.4655   9.4655   9.4655  10.4667
    10.4667  10.4667  11.6700  11.6700  11.7086  11.7086  11.7086  11.7086
    11.7086  11.7086  11.8397  11.8397  11.8397  11.8397  11.8397  11.8397
    12.7340  12.7340  12.7340  12.9868  12.9868  12.9868  12.9868  12.9868
    12.9868  13.5749  13.5749  13.5749  13.5749  13.5749  13.5749  19.8761
    19.8761  19.8761

     occupation numbers 
     1.0000   1.0000   1.0000   1.0000   1.0000   1.0000   1.0000   1.0000
     1.0000   1.0000   1.0000   1.0000   1.0000   1.0000   1.0000   1.0000
     1.0000   1.0000   1.0000   1.0000   1.0000   1.0000   1.0000   1.0000
     1.0000   1.0000   1.0000   1.0000   1.0000   1.0000   1.0000   1.0000
     0.8941   0.8941   0.8941  -0.0344  -0.0344  -0.0344  -0.0344  -0.0344
    -0.0344   0.0000   0.0000   0.0000   0.0000   0.0000   0.0000   0.0000
     0.0000   0.0000

          k = 0.0000-0.2500 0.2500 (  1773 PWs)   bands (ev):

     5.3649   8.0148   8.3762   8.3762   8.3762   8.3762   8.4024   8.4148
     8.4515   9.5508   9.5508   9.5508   9.5508   9.6037   9.8376  10.3111
    10.4462  10.6048  10.7869  11.0905  11.0905  11.0905  11.0905  11.4628
    11.4746  11.5402  11.6737  11.6737  11.6737  11.6737  11.6836  11.8030
    11.8660  12.0942  12.2138  12.2138  12.2138  12.2138  12.2649  12.5560
    12.7706  12.9492  14.6128  14.6128  14.6128  14.6128  15.2749  19.9881
    20.8486  20.9783

     occupation numbers 
     1.0000   1.0000   1.0000   1.0000   1.0000   1.0000   1.0000   1.0000
     1.0000   1.0000   1.0000   1.0000   1.0000   1.0000   1.0000   1.0000
     1.0000   1.0000   1.0000   1.0000   1.0000   1.0000   1.0000   1.0000
     1.0000   1.0000   1.0000   1.0000   1.0000   1.0000   1.0000   1.0000
     1.0000   1.0000   1.0000   1.0000   1.0000   1.0000   1.0000   1.0125
     0.7247  -0.0284   0.0000   0.0000   0.0000   0.0000   0.0000   0.0000
     0.0000   0.0000

          k = 0.0000 0.5000-0.5000 (  1766 PWs)   bands (ev):

     6.9461   6.9461   8.7596   8.7596   8.9207   8.9207   8.9207   8.9207
     9.2766   9.2766   9.5677   9.5677   9.5677   9.5677   9.9490   9.9490
    10.1943  10.1943  10.1944  10.1944  10.4010  10.4010  10.8464  10.8464
    11.4335  11.4335  11.5023  11.5023  11.6079  11.6079  11.6079  11.6079
    11.6172  11.6172  11.7318  11.7319  12.0282  12.0282  12.0282  12.0282
    12.8597  12.8597  15.0336  15.0336  15.0336  15.0336  17.9594  17.9594
    20.4782  20.4782

     occupation numbers 
     1.0000   1.0000   1.0000   1.0000   1.0000   1.0000   1.0000   1.0000
     1.0000   1.0000   1.0000   1.0000   1.0000   1.0000   1.0000   1.0000
     1.0000   1.0000   1.0000   1.0000   1.0000   1.0000   1.0000   1.0000
     1.0000   1.0000   1.0000   1.0000   1.0000   1.0000   1.0000   1.0000
     1.0000   1.0000   1.0000   1.0000   1.0000   1.0000   1.0000   1.0000
     0.2041   0.2041   0.0000   0.0000   0.0000   0.0000   0.0000   0.0000
     0.0000   0.0000

          k =-0.2500 0.7500-0.5000 (  1758 PWs)   bands (ev):

     6.4992   8.0386   8.0386   8.8553   8.8799   8.8846   8.8877   8.8877
     9.0076   9.5013   9.6013   9.7066   9.7066   9.7769   9.7769  10.1475
    10.1554  10.1617  10.1617  10.1931  10.2416  10.2568  10.2568  10.9744
    11.4014  11.4589  11.4898  11.4898  11.5230  11.5230  11.7405  11.7647
    11.7748  11.8172  11.8864  11.8864  12.0120  12.0815  12.5235  12.5235
    12.5816  12.7117  12.7117  14.7141  16.1420  16.1420  17.6742  18.3331
    20.2207  21.5591

     occupation numbers 
     1.0000   1.0000   1.0000   1.0000   1.0000   1.0000   1.0000   1.0000
     1.0000   1.0000   1.0000   1.0000   1.0000   1.0000   1.0000   1.0000
     1.0000   1.0000   1.0000   1.0000   1.0000   1.0000   1.0000   1.0000
     1.0000   1.0000   1.0000   1.0000   1.0000   1.0000   1.0000   1.0000
     1.0000   1.0000   1.0000   1.0000   1.0000   1.0000   1.0058   1.0058
     1.0201   0.9632   0.9632   0.0000   0.0000   0.0000   0.0000   0.0000
     0.0000   0.0000

          k = 0.0000 0.0000 0.5000 (  1773 PWs)   bands (ev):

     5.9572   8.3884   8.3884   8.3884   8.3884   8.6226   8.6736   8.8096
     8.8096   9.4095   9.4095   9.9614   9.9614   9.9614   9.9614  10.3310
    10.3310  10.3310  10.3310  10.4982  10.4982  10.7870  10.8571  10.8571
    11.1564  11.4527  11.4527  11.4527  11.4527  11.7980  11.7980  11.8560
    11.8560  11.8722  11.9480  11.9480  12.3900  12.5036  12.5036  12.5036
    12.5036  13.3145  13.3145  13.3145  13.3145  16.8332  16.8332  17.6183
    20.1636  20.1636

     occupation numbers 
     1.0000   1.0000   1.0000   1.0000   1.0000   1.0000   1.0000   1.0000
     1.0000   1.0000   1.0000   1.0000   1.0000   1.0000   1.0000   1.0000
     1.0000   1.0000   1.0000   1.0000   1.0000   1.0000   1.0000   1.0000
     1.0000   1.0000   1.0000   1.0000   1.0000   1.0000   1.0000   1.0000
     1.0000   1.0000   1.0000   1.0000   1.0001   1.0034   1.0034   1.0034
     1.0034   0.0000   0.0000   0.0000   0.0000   0.0000   0.0000   0.0000
     0.0000   0.0000

          k = 0.0000 0.7500-0.2500 (  1780 PWs)   bands (ev):

     7.4330   7.4330   8.5992   8.5992   8.8728   8.8728   9.2389   9.2389
     9.3169   9.3169   9.6003   9.6004   9.7258   9.7259  10.0577  10.0577
    10.2646  10.2646  10.3036  10.3036  10.4285  10.4285  10.9139  10.9139
    11.0788  11.0788  11.1898  11.1898  11.3224  11.3224  11.5452  11.5452
    11.8291  11.8291  11.8775  11.8775  12.0881  12.0881  12.1297  12.1297
    12.3860  12.3860  13.3424  13.3424  15.1082  15.1082  17.7620  17.7620
    21.9268  21.9268

     occupation numbers 
     1.0000   1.0000   1.0000   1.0000   1.0000   1.0000   1.0000   1.0000
     1.0000   1.0000   1.0000   1.0000   1.0000   1.0000   1.0000   1.0000
     1.0000   1.0000   1.0000   1.0000   1.0000   1.0000   1.0000   1.0000
     1.0000   1.0000   1.0000   1.0000   1.0000   1.0000   1.0000   1.0000
     1.0000   1.0000   1.0000   1.0000   1.0000   1.0000   1.0000   1.0000
     1.0001   1.0001   0.0000   0.0000   0.0000   0.0000   0.0000   0.0000
     0.0000   0.0000

          k = 0.5000-0.5000 0.5000 (  1772 PWs)   bands (ev):

     7.9248   7.9248   7.9248   7.9248   9.4021   9.4021   9.4021   9.4021
     9.4021   9.4021   9.4021   9.4021   9.7757   9.7757   9.7757   9.7757
     9.7757   9.7757   9.7757   9.7757   9.8001   9.8001   9.8001   9.8001
    11.6770  11.6770  11.6770  11.6770  11.6770  11.6770  11.6770  11.6770
    12.1242  12.1242  12.1242  12.1242  12.1242  12.1242  12.1242  12.1242
    12.7409  12.7409  12.7409  12.7409  19.8130  19.8130  19.8130  19.8131
    19.8131  19.8131

     occupation numbers 
     1.0000   1.0000   1.0000   1.0000   1.0000   1.0000   1.0000   1.0000
     1.0000   1.0000   1.0000   1.0000   1.0000   1.0000   1.0000   1.0000
     1.0000   1.0000   1.0000   1.0000   1.0000   1.0000   1.0000   1.0000
     1.0000   1.0000   1.0000   1.0000   1.0000   1.0000   1.0000   1.0000
     1.0000   1.0000   1.0000   1.0000   1.0000   1.0000   1.0000   1.0000
     0.8672   0.8672   0.8672   0.8672   0.0000   0.0000   0.0000   0.0000
     0.0000   0.0000

          k = 0.0000 0.0000-1.0000 (  1830 PWs)   bands (ev):

     8.4262   8.4262   8.4262   8.4262   8.4262   8.4262   9.6597   9.6597
     9.6597   9.6597   9.6597   9.6597   9.9058   9.9058   9.9058   9.9058
     9.9058   9.9058  10.9007  10.9007  10.9007  10.9007  10.9007  10.9007
    10.9007  10.9007  10.9007  10.9007  10.9007  10.9007  11.5761  11.5761
    11.5761  11.5761  11.5761  11.5761  11.8728  11.8728  11.8728  11.8728
    12.9646  12.9646  12.9646  12.9646  12.9646  12.9646  21.3186  21.3186
    21.3186  21.3186

     occupation numbers 
     1.0000   1.0000   1.0000   1.0000   1.0000   1.0000   1.0000   1.0000
     1.0000   1.0000   1.0000   1.0000   1.0000   1.0000   1.0000   1.0000
     1.0000   1.0000   1.0000   1.0000   1.0000   1.0000   1.0000   1.0000
     1.0000   1.0000   1.0000   1.0000   1.0000   1.0000   1.0000   1.0000
     1.0000   1.0000   1.0000   1.0000   1.0000   1.0000   1.0000   1.0000
    -0.0345  -0.0345  -0.0345  -0.0345  -0.0345  -0.0345   0.0000   0.0000
     0.0000   0.0000

 ------ SPIN DOWN ----------


          k = 0.0000 0.0000 0.0000 (  1745 PWs)   bands (ev):

     4.8035   9.6061   9.6061   9.6061   9.6061   9.6061   9.6061  10.2457
    10.2457  11.6806  11.6806  11.6806  11.6807  11.6807  11.6807  12.9430
    12.9430  12.9430  13.5494  13.5494  13.5494  13.5494  13.5494  13.5494
    14.7267  14.7267  14.7267  14.7267  14.7267  14.7267  14.8396  14.8396
    15.0954  15.0954  15.0954  15.0954  15.0954  15.0955  15.5642  15.5642
    15.5642  15.8593  15.8593  15.8593  15.8593  15.8593  15.8593  21.4983
    21.4983  21.4983

     occupation numbers 
     1.0000   1.0000   1.0000   1.0000   1.0000   1.0000   1.0000   1.0000
     1.0000   1.0000   1.0000   1.0000   1.0000   1.0000   1.0000  -0.0241
    -0.0241  -0.0241   0.0000   0.0000   0.0000   0.0000   0.0000   0.0000
     0.0000   0.0000   0.0000   0.0000   0.0000   0.0000   0.0000   0.0000
     0.0000   0.0000   0.0000   0.0000   0.0000   0.0000   0.0000   0.0000
     0.0000   0.0000   0.0000   0.0000   0.0000   0.0000   0.0000   0.0000
     0.0000   0.0000

          k = 0.0000-0.2500 0.2500 (  1773 PWs)   bands (ev):

     5.4306   9.0173   9.8357   9.8357   9.8357   9.8357  10.0384  10.4882
    10.5039  11.7374  11.7374  11.7374  11.7374  11.8515  12.0910  12.4179
    12.5958  12.5958  12.5958  12.5958  12.6816  12.7426  12.8826  13.3023
    14.3068  14.6510  14.6580  14.6580  14.6580  14.6580  14.6635  14.7206
    14.8569  14.8927  15.0362  15.1907  15.1907  15.1907  15.1907  15.3422
    15.6068  15.8152  16.5422  16.5422  16.5422  16.5422  16.6454  21.4949
    21.5213  22.2841

     occupation numbers 
     1.0000   1.0000   1.0000   1.0000   1.0000   1.0000   1.0000   1.0000
     1.0000   1.0000   1.0000   1.0000   1.0000   1.0000   1.0000   1.0002
     1.0248   1.0248   1.0248   1.0248   1.0164   0.8604   0.1056   0.0000
     0.0000   0.0000   0.0000   0.0000   0.0000   0.0000   0.0000   0.0000
     0.0000   0.0000   0.0000   0.0000   0.0000   0.0000   0.0000   0.0000
     0.0000   0.0000   0.0000   0.0000   0.0000   0.0000   0.0000   0.0000
     0.0000   0.0000

          k = 0.0000 0.5000-0.5000 (  1766 PWs)   bands (ev):

     7.1292   7.1292  10.1851  10.1851  10.1851  10.1851  10.7220  10.7220
    11.2203  11.2203  11.5954  11.5954  11.5954  11.5954  12.0346  12.0346
    12.0346  12.0346  12.2827  12.2827  12.5804  12.5804  13.2278  13.2278
    13.9453  13.9453  14.2461  14.2461  14.5217  14.5217  14.5722  14.5722
    14.5722  14.5722  14.9257  14.9257  15.1149  15.1149  15.1149  15.1149
    15.7107  15.7107  17.0539  17.0539  17.0539  17.0539  19.0384  19.0384
    21.6977  21.6977

     occupation numbers 
     1.0000   1.0000   1.0000   1.0000   1.0000   1.0000   1.0000   1.0000
     1.0000   1.0000   1.0000   1.0000   1.0000   1.0000   1.0000   1.0000
     1.0000   1.0000   1.0000   1.0000   1.0197   1.0197  -0.0001  -0.0001
     0.0000   0.0000   0.0000   0.0000   0.0000   0.0000   0.0000   0.0000
     0.0000   0.0000   0.0000   0.0000   0.0000   0.0000   0.0000   0.0000
     0.0000   0.0000   0.0000   0.0000   0.0000   0.0000   0.0000   0.0000
     0.0000   0.0000

          k =-0.2500 0.7500-0.5000 (  1758 PWs)   bands (ev):

     6.6063   8.5397   8.5397   9.9744  10.5396  10.5396  10.7729  10.7742
    10.9834  11.6116  11.6255  11.6565  11.6565  11.7996  11.9324  12.0209
    12.0209  12.2268  12.2268  12.3605  12.3605  12.4959  12.5522  13.3082
    14.0231  14.2488  14.2488  14.4296  14.4592  14.4592  14.6245  14.7549
    14.8596  14.9616  15.0276  15.0276  15.0461  15.0891  15.2895  15.2895
    15.3343  15.3344  15.3528  16.8421  17.7389  17.7389  19.0293  19.4689
    21.5534  22.7214

     occupation numbers 
     1.0000   1.0000   1.0000   1.0000   1.0000   1.0000   1.0000   1.0000
     1.0000   1.0000   1.0000   1.0000   1.0000   1.0000   1.0000   1.0000
     1.0000   1.0000   1.0000   1.0000   1.0000   1.0027   1.0115   0.0000
     0.0000   0.0000   0.0000   0.0000   0.0000   0.0000   0.0000   0.0000
     0.0000   0.0000   0.0000   0.0000   0.0000   0.0000   0.0000   0.0000
     0.0000   0.0000   0.0000   0.0000   0.0000   0.0000   0.0000   0.0000
     0.0000   0.0000

          k = 0.0000 0.0000 0.5000 (  1773 PWs)   bands (ev):

     6.0353   9.4631   9.4632   9.4632   9.4632  10.4435  10.4435  10.4671
    10.8682  11.4801  11.4801  12.2307  12.2307  12.2307  12.2307  12.2443
    12.2443  12.2443  12.2443  12.2798  12.2798  12.9227  12.9227  13.3089
    14.1312  14.2222  14.2222  14.2222  14.2222  14.4997  14.4997  14.9159
    14.9159  15.0859  15.1185  15.1185  15.1619  15.2786  15.2786  15.2786
    15.2786  15.6964  15.6964  15.6964  15.6964  18.2459  18.2459  18.6618
    21.5735  21.5735

     occupation numbers 
     1.0000   1.0000   1.0000   1.0000   1.0000   1.0000   1.0000   1.0000
     1.0000   1.0000   1.0000   1.0000   1.0000   1.0000   1.0000   1.0000
     1.0000   1.0000   1.0000   1.0000   1.0000   0.0002   0.0002   0.0000
     0.0000   0.0000   0.0000   0.0000   0.0000   0.0000   0.0000   0.0000
     0.0000   0.0000   0.0000   0.0000   0.0000   0.0000   0.0000   0.0000
     0.0000   0.0000   0.0000   0.0000   0.0000   0.0000   0.0000   0.0000
     0.0000   0.0000

          k = 0.0000 0.7500-0.2500 (  1780 PWs)   bands (ev):

     7.6601   7.6601   9.3313   9.3313  10.2672  10.2672  11.0226  11.0226
    11.4458  11.4458  11.5513  11.5513  11.6523  11.6523  12.0130  12.0130
    12.6223  12.6223  12.6468  12.6468  12.6708  12.6708  13.3063  13.3063
    13.8255  13.8256  13.8363  13.8363  13.8539  13.8539  14.1610  14.1610
    14.9069  14.9069  15.0114  15.0114  15.1082  15.1082  15.1398  15.1398
    15.2664  15.2664  15.8276  15.8276  16.8593  16.8593  19.2288  19.2288
    22.9371  22.9371

     occupation numbers 
     1.0000   1.0000   1.0000   1.0000   1.0000   1.0000   1.0000   1.0000
     1.0000   1.0000   1.0000   1.0000   1.0000   1.0000   1.0000   1.0000
     1.0329   1.0329   1.0352   1.0352   1.0262   1.0262   0.0000   0.0000
     0.0000   0.0000   0.0000   0.0000   0.0000   0.0000   0.0000   0.0000
     0.0000   0.0000   0.0000   0.0000   0.0000   0.0000   0.0000   0.0000
     0.0000   0.0000   0.0000   0.0000   0.0000   0.0000   0.0000   0.0000
     0.0000   0.0000

          k = 0.5000-0.5000 0.5000 (  1772 PWs)   bands (ev):

     8.1730   8.1730   8.1730   8.1730  11.3565  11.3565  11.3565  11.3565
    11.3565  11.3565  11.3565  11.3565  11.8698  11.8698  11.8698  11.8698
    11.9946  11.9946  11.9946  11.9946  11.9946  11.9946  11.9946  11.9946
    14.8183  14.8183  14.8183  14.8183  14.8183  14.8183  14.8183  14.8183
    14.8922  14.8922  14.8922  14.8922  14.8922  14.8922  14.8922  14.8922
    15.2662  15.2662  15.2662  15.2662  20.9994  20.9994  20.9994  20.9994
    20.9994  20.9994

     occupation numbers 
     1.0000   1.0000   1.0000   1.0000   1.0000   1.0000   1.0000   1.0000
     1.0000   1.0000   1.0000   1.0000   1.0000   1.0000   1.0000   1.0000
     1.0000   1.0000   1.0000   1.0000   1.0000   1.0000   1.0000   1.0000
     0.0000   0.0000   0.0000   0.0000   0.0000   0.0000   0.0000   0.0000
     0.0000   0.0000   0.0000   0.0000   0.0000   0.0000   0.0000   0.0000
     0.0000   0.0000   0.0000   0.0000   0.0000   0.0000   0.0000   0.0000
     0.0000   0.0000

          k = 0.0000 0.0000-1.0000 (  1830 PWs)   bands (ev):

     8.9852   8.9852   8.9852   8.9852   8.9852   8.9852  11.4312  11.4312
    11.4312  11.4312  11.4312  11.4312  12.4520  12.4520  12.4520  12.4520
    12.4520  12.4520  13.2873  13.2873  13.2873  13.2873  13.2873  13.2873
    13.2873  13.2873  13.2873  13.2873  13.2873  13.2873  14.2164  14.2164
    14.2164  14.2164  14.2164  14.2164  15.1422  15.1422  15.1422  15.1422
    15.6768  15.6768  15.6768  15.6768  15.6768  15.6768  22.3412  22.3412
    22.3412  22.3412

     occupation numbers 
     1.0000   1.0000   1.0000   1.0000   1.0000   1.0000   1.0000   1.0000
     1.0000   1.0000   1.0000   1.0000   1.0007   1.0007   1.0007   1.0007
     1.0007   1.0007   0.0000   0.0000   0.0000   0.0000   0.0000   0.0000
     0.0000   0.0000   0.0000   0.0000   0.0000   0.0000   0.0000   0.0000
     0.0000   0.0000   0.0000   0.0000   0.0000   0.0000   0.0000   0.0000
     0.0000   0.0000   0.0000   0.0000   0.0000   0.0000   0.0000   0.0000
     0.0000   0.0000

     the Fermi energy is    12.8082 ev

!    total energy              =    -446.41430227 Ry
     Harris-Foulkes estimate   =    -446.41430227 Ry
     estimated scf accuracy    <          5.4E-10 Ry

     The total energy is the sum of the following terms:

     one-electron contribution =      55.34983856 Ry
     hartree contribution      =      53.59614212 Ry
     xc contribution           =    -211.58157436 Ry
     ewald contribution        =    -343.77998637 Ry
     Hubbard energy            =       0.00000000 Ry
     smearing contrib. (-TS)   =       0.00127779 Ry

     total magnetization       =    19.54 Bohr mag/cell
     absolute magnetization    =    20.99 Bohr mag/cell

     convergence has been achieved in   3 iterations

     Writing output data file fe.save
 
     init_run     :      1.96s CPU      2.00s WALL (       1 calls)
     electrons    :     18.42s CPU     18.62s WALL (       1 calls)

     Called by init_run:
     wfcinit      :      0.13s CPU      0.13s WALL (       1 calls)
     potinit      :      0.27s CPU      0.28s WALL (       1 calls)

     Called by electrons:
     c_bands      :     13.24s CPU     13.39s WALL (       3 calls)
     sum_band     :      3.43s CPU      3.45s WALL (       3 calls)
     v_of_rho     :      0.52s CPU      0.54s WALL (       4 calls)
     v_h          :      0.02s CPU      0.02s WALL (       4 calls)
     v_xc         :      0.50s CPU      0.53s WALL (       4 calls)
     newd         :      1.68s CPU      1.69s WALL (       4 calls)
     mix_rho      :      0.03s CPU      0.03s WALL (       3 calls)

     Called by c_bands:
     init_us_2    :      0.08s CPU      0.07s WALL (     112 calls)
     cegterg      :     12.74s CPU     12.85s WALL (      48 calls)

     Called by sum_band:
     sum_band:bec :      0.03s CPU      0.02s WALL (      48 calls)
     addusdens    :      1.99s CPU      2.00s WALL (       3 calls)

     Called by *egterg:
     h_psi        :      7.16s CPU      7.28s WALL (     305 calls)
     s_psi        :      0.62s CPU      0.60s WALL (     321 calls)
     g_psi        :      0.06s CPU      0.06s WALL (     257 calls)
     cdiaghg      :      3.01s CPU      3.10s WALL (     289 calls)
     cegterg:over :      0.71s CPU      0.71s WALL (     257 calls)
     cegterg:upda :      0.45s CPU      0.46s WALL (     257 calls)
     cegterg:last :      0.34s CPU      0.34s WALL (      62 calls)

     Called by h_psi:
     h_psi:vloc   :      5.51s CPU      5.57s WALL (     305 calls)
     h_psi:vnl    :      1.17s CPU      1.19s WALL (     305 calls)
     add_vuspsi   :      0.57s CPU      0.57s WALL (     305 calls)
     vhpsi        :      0.47s CPU      0.50s WALL (     305 calls)

     General routines
     calbec       :      1.09s CPU      1.10s WALL (     722 calls)
     fft          :      0.27s CPU      0.30s WALL (     112 calls)
     ffts         :      0.01s CPU      0.01s WALL (      14 calls)
     fftw         :      5.30s CPU      5.33s WALL (   16896 calls)
     interpolate  :      0.05s CPU      0.05s WALL (      14 calls)
     davcio       :      0.01s CPU      0.01s WALL (      48 calls)
 
     Parallel routines
     fft_scatter  :      1.16s CPU      1.19s WALL (   17022 calls)
     Hubbard U routines
     new_ns       :      0.08s CPU      0.08s WALL (       3 calls)
     vhpsi        :      0.47s CPU      0.50s WALL (     305 calls)
 
     PWSCF        :    20.61s CPU        20.87s WALL

 
   This run was terminated on:  17:42:17  30Jun2014            

=------------------------------------------------------------------------------=
   JOB DONE.
=------------------------------------------------------------------------------=
