
     Program PWSCF v.5.1 starts on 30Jun2014 at 17:44:12 

     This program is part of the open-source Quantum ESPRESSO suite
     for quantum simulation of materials; please cite
         "P. Giannozzi et al., J. Phys.:Condens. Matter 21 395502 (2009);
          URL http://www.quantum-espresso.org", 
     in publications or presentations arising from this work. More details at
     http://www.quantum-espresso.org/quote

     Parallel version (MPI), running on     4 processors
     R & G space division:  proc/nbgrp/npool/nimage =       4
     Waiting for input...
     Reading input from standard input

     Current dimensions of program PWSCF are:
     Max number of different atomic species (ntypx) = 10
     Max number of k-points (npk) =  40000
     Max angular momentum in pseudopotentials (lmaxx) =  3
               file Fe.pbe-nd-rrkjus.UPF: wavefunction(s)  4S renormalized
               file Fe.pbe-nd-rrkjus.UPF: wavefunction(s)  4S renormalized

     Subspace diagonalization in iterative solution of the eigenvalue problem:
     a serial algorithm will be used

 
     Parallelization info
     --------------------
     sticks:   dense  smooth     PW     G-vecs:    dense   smooth      PW
     Min         595     199     60                18379     3540     586
     Max         596     200     61                18382     3545     587
     Sum        2383     797    241                73525    14171    2347
 
     Generating pointlists ...
     new r_m :   0.1786 (alat units)  1.9362 (a.u.) for type    1
     new r_m :   0.1786 (alat units)  1.9362 (a.u.) for type    2


     bravais-lattice index     =            3
     lattice parameter (alat)  =      10.8400  a.u.
     unit-cell volume          =     636.8804 (a.u.)^3
     number of atoms/cell      =            8
     number of atomic types    =            2
     number of electrons       =        64.00
     number of Kohn-Sham states=           50
     kinetic-energy cutoff     =      30.0000  Ry
     charge density cutoff     =     360.0000  Ry
     convergence threshold     =      1.0E-09
     mixing beta               =       0.3000
     number of iterations used =            8  plain     mixing
     Exchange-correlation      =  SLA  PW   PBE  PBE ( 1  4  3  4 0)

     celldm(1)=  10.840000  celldm(2)=   0.000000  celldm(3)=   0.000000
     celldm(4)=   0.000000  celldm(5)=   0.000000  celldm(6)=   0.000000

     crystal axes: (cart. coord. in units of alat)
               a(1) = (   0.500000   0.500000   0.500000 )  
               a(2) = (  -0.500000   0.500000   0.500000 )  
               a(3) = (  -0.500000  -0.500000   0.500000 )  

     reciprocal axes: (cart. coord. in units 2 pi/alat)
               b(1) = (  1.000000  0.000000  1.000000 )  
               b(2) = ( -1.000000  1.000000  0.000000 )  
               b(3) = (  0.000000 -1.000000  1.000000 )  


     PseudoPot. # 1 for Fe read from file:
     ../pseudo/Fe.pbe-nd-rrkjus.UPF
     MD5 check sum: 23c640529ef232ac9996b4ec1b0ce2fd
     Pseudo is Ultrasoft + core correction, Zval =  8.0
     Generated by new atomic code, or converted to UPF format
     Using radial grid of  957 points,  6 beta functions with: 
                l(1) =   0
                l(2) =   0
                l(3) =   1
                l(4) =   1
                l(5) =   2
                l(6) =   2
     Q(r) pseudized with 0 coefficients 


     PseudoPot. # 2 for Fe read from file:
     ../pseudo/Fe.pbe-nd-rrkjus.UPF
     MD5 check sum: 23c640529ef232ac9996b4ec1b0ce2fd
     Pseudo is Ultrasoft + core correction, Zval =  8.0
     Generated by new atomic code, or converted to UPF format
     Using radial grid of  957 points,  6 beta functions with: 
                l(1) =   0
                l(2) =   0
                l(3) =   1
                l(4) =   1
                l(5) =   2
                l(6) =   2
     Q(r) pseudized with 0 coefficients 


     atomic species   valence    mass     pseudopotential
        Fe1            8.00     1.00000     Fe( 1.00)
        Fe             8.00     1.00000     Fe( 1.00)

     Starting magnetic structure 
     atomic species   magnetization
        Fe1          0.600
        Fe           0.600


     Simplified LDA+U calculation (l_max = 2) with parameters (eV):
     atomic species    L          U    alpha       J0     beta
        Fe1            2     0.0000  -0.1000   0.0000   0.0000
        Fe             2     0.0000   0.0000   0.0000   0.0000



     48 Sym. Ops., with inversion, found


                                    s                        frac. trans.

      isym =  1     identity                                     

 cryst.   s( 1) = (     1          0          0      )
                  (     0          1          0      )
                  (     0          0          1      )

 cart.    s( 1) = (  1.0000000  0.0000000  0.0000000 )
                  (  0.0000000  1.0000000  0.0000000 )
                  (  0.0000000  0.0000000  1.0000000 )


      isym =  2     180 deg rotation - cart. axis [0,0,1]        

 cryst.   s( 2) = (     0          0          1      )
                  (     1         -1          1      )
                  (     1          0          0      )

 cart.    s( 2) = ( -1.0000000  0.0000000  0.0000000 )
                  (  0.0000000 -1.0000000  0.0000000 )
                  (  0.0000000  0.0000000  1.0000000 )


      isym =  3     180 deg rotation - cart. axis [0,1,0]        

 cryst.   s( 3) = (    -1          1         -1      )
                  (     0          0         -1      )
                  (     0         -1          0      )

 cart.    s( 3) = ( -1.0000000  0.0000000  0.0000000 )
                  (  0.0000000  1.0000000  0.0000000 )
                  (  0.0000000  0.0000000 -1.0000000 )


      isym =  4     180 deg rotation - cart. axis [1,0,0]        

 cryst.   s( 4) = (     0         -1          0      )
                  (    -1          0          0      )
                  (    -1          1         -1      )

 cart.    s( 4) = (  1.0000000  0.0000000  0.0000000 )
                  (  0.0000000 -1.0000000  0.0000000 )
                  (  0.0000000  0.0000000 -1.0000000 )


      isym =  5     180 deg rotation - cart. axis [1,1,0]        

 cryst.   s( 5) = (     0          0         -1      )
                  (     0         -1          0      )
                  (    -1          0          0      )

 cart.    s( 5) = (  0.0000000  1.0000000  0.0000000 )
                  (  1.0000000  0.0000000  0.0000000 )
                  (  0.0000000  0.0000000 -1.0000000 )


      isym =  6     180 deg rotation - cart. axis [1,-1,0]       

 cryst.   s( 6) = (    -1          0          0      )
                  (    -1          1         -1      )
                  (     0          0         -1      )

 cart.    s( 6) = (  0.0000000 -1.0000000  0.0000000 )
                  ( -1.0000000  0.0000000  0.0000000 )
                  (  0.0000000  0.0000000 -1.0000000 )


      isym =  7      90 deg rotation - cart. axis [0,0,-1]       

 cryst.   s( 7) = (     1         -1          1      )
                  (     1          0          0      )
                  (     0          1          0      )

 cart.    s( 7) = (  0.0000000  1.0000000  0.0000000 )
                  ( -1.0000000  0.0000000  0.0000000 )
                  (  0.0000000  0.0000000  1.0000000 )


      isym =  8      90 deg rotation - cart. axis [0,0,1]        

 cryst.   s( 8) = (     0          1          0      )
                  (     0          0          1      )
                  (     1         -1          1      )

 cart.    s( 8) = (  0.0000000 -1.0000000  0.0000000 )
                  (  1.0000000  0.0000000  0.0000000 )
                  (  0.0000000  0.0000000  1.0000000 )


      isym =  9     180 deg rotation - cart. axis [1,0,1]        

 cryst.   s( 9) = (     1         -1          1      )
                  (     0         -1          0      )
                  (     0          0         -1      )

 cart.    s( 9) = (  0.0000000  0.0000000  1.0000000 )
                  (  0.0000000 -1.0000000  0.0000000 )
                  (  1.0000000  0.0000000  0.0000000 )


      isym = 10     180 deg rotation - cart. axis [-1,0,1]       

 cryst.   s(10) = (    -1          0          0      )
                  (     0          0          1      )
                  (     0          1          0      )

 cart.    s(10) = (  0.0000000  0.0000000 -1.0000000 )
                  (  0.0000000 -1.0000000  0.0000000 )
                  ( -1.0000000  0.0000000  0.0000000 )


      isym = 11      90 deg rotation - cart. axis [0,1,0]        

 cryst.   s(11) = (     0          0         -1      )
                  (     1          0          0      )
                  (     1         -1          1      )

 cart.    s(11) = (  0.0000000  0.0000000  1.0000000 )
                  (  0.0000000  1.0000000  0.0000000 )
                  ( -1.0000000  0.0000000  0.0000000 )


      isym = 12      90 deg rotation - cart. axis [0,-1,0]       

 cryst.   s(12) = (     0          1          0      )
                  (    -1          1         -1      )
                  (    -1          0          0      )

 cart.    s(12) = (  0.0000000  0.0000000 -1.0000000 )
                  (  0.0000000  1.0000000  0.0000000 )
                  (  1.0000000  0.0000000  0.0000000 )


      isym = 13     180 deg rotation - cart. axis [0,1,1]        

 cryst.   s(13) = (     0          1          0      )
                  (     1          0          0      )
                  (     0          0         -1      )

 cart.    s(13) = ( -1.0000000  0.0000000  0.0000000 )
                  (  0.0000000  0.0000000  1.0000000 )
                  (  0.0000000  1.0000000  0.0000000 )


      isym = 14     180 deg rotation - cart. axis [0,1,-1]       

 cryst.   s(14) = (    -1          0          0      )
                  (     0         -1          0      )
                  (     1         -1          1      )

 cart.    s(14) = ( -1.0000000  0.0000000  0.0000000 )
                  (  0.0000000  0.0000000 -1.0000000 )
                  (  0.0000000 -1.0000000  0.0000000 )


      isym = 15      90 deg rotation - cart. axis [-1,0,0]       

 cryst.   s(15) = (     0          0         -1      )
                  (    -1          1         -1      )
                  (     0          1          0      )

 cart.    s(15) = (  1.0000000  0.0000000  0.0000000 )
                  (  0.0000000  0.0000000  1.0000000 )
                  (  0.0000000 -1.0000000  0.0000000 )


      isym = 16      90 deg rotation - cart. axis [1,0,0]        

 cryst.   s(16) = (     1         -1          1      )
                  (     0          0          1      )
                  (    -1          0          0      )

 cart.    s(16) = (  1.0000000  0.0000000  0.0000000 )
                  (  0.0000000  0.0000000 -1.0000000 )
                  (  0.0000000  1.0000000  0.0000000 )


      isym = 17     120 deg rotation - cart. axis [-1,-1,-1]     

 cryst.   s(17) = (     1          0          0      )
                  (     0          0         -1      )
                  (    -1          1         -1      )

 cart.    s(17) = (  0.0000000  1.0000000  0.0000000 )
                  (  0.0000000  0.0000000  1.0000000 )
                  (  1.0000000  0.0000000  0.0000000 )


      isym = 18     120 deg rotation - cart. axis [-1,1,1]       

 cryst.   s(18) = (    -1          1         -1      )
                  (     0          1          0      )
                  (     1          0          0      )

 cart.    s(18) = (  0.0000000 -1.0000000  0.0000000 )
                  (  0.0000000  0.0000000  1.0000000 )
                  ( -1.0000000  0.0000000  0.0000000 )


      isym = 19     120 deg rotation - cart. axis [1,1,-1]       

 cryst.   s(19) = (     0         -1          0      )
                  (     1         -1          1      )
                  (     0          0          1      )

 cart.    s(19) = (  0.0000000  1.0000000  0.0000000 )
                  (  0.0000000  0.0000000 -1.0000000 )
                  ( -1.0000000  0.0000000  0.0000000 )


      isym = 20     120 deg rotation - cart. axis [1,-1,1]       

 cryst.   s(20) = (     0          0          1      )
                  (    -1          0          0      )
                  (     0         -1          0      )

 cart.    s(20) = (  0.0000000 -1.0000000  0.0000000 )
                  (  0.0000000  0.0000000 -1.0000000 )
                  (  1.0000000  0.0000000  0.0000000 )


      isym = 21     120 deg rotation - cart. axis [1,1,1]        

 cryst.   s(21) = (     1          0          0      )
                  (     1         -1          1      )
                  (     0         -1          0      )

 cart.    s(21) = (  0.0000000  0.0000000  1.0000000 )
                  (  1.0000000  0.0000000  0.0000000 )
                  (  0.0000000  1.0000000  0.0000000 )


      isym = 22     120 deg rotation - cart. axis [-1,1,-1]      

 cryst.   s(22) = (     0         -1          0      )
                  (     0          0         -1      )
                  (     1          0          0      )

 cart.    s(22) = (  0.0000000  0.0000000  1.0000000 )
                  ( -1.0000000  0.0000000  0.0000000 )
                  (  0.0000000 -1.0000000  0.0000000 )


      isym = 23     120 deg rotation - cart. axis [1,-1,-1]      

 cryst.   s(23) = (     0          0          1      )
                  (     0          1          0      )
                  (    -1          1         -1      )

 cart.    s(23) = (  0.0000000  0.0000000 -1.0000000 )
                  ( -1.0000000  0.0000000  0.0000000 )
                  (  0.0000000  1.0000000  0.0000000 )


      isym = 24     120 deg rotation - cart. axis [-1,-1,1]      

 cryst.   s(24) = (    -1          1         -1      )
                  (    -1          0          0      )
                  (     0          0          1      )

 cart.    s(24) = (  0.0000000  0.0000000 -1.0000000 )
                  (  1.0000000  0.0000000  0.0000000 )
                  (  0.0000000 -1.0000000  0.0000000 )


      isym = 25     inversion                                    

 cryst.   s(25) = (    -1          0          0      )
                  (     0         -1          0      )
                  (     0          0         -1      )

 cart.    s(25) = ( -1.0000000  0.0000000  0.0000000 )
                  (  0.0000000 -1.0000000  0.0000000 )
                  (  0.0000000  0.0000000 -1.0000000 )


      isym = 26     inv. 180 deg rotation - cart. axis [0,0,1]   

 cryst.   s(26) = (     0          0         -1      )
                  (    -1          1         -1      )
                  (    -1          0          0      )

 cart.    s(26) = (  1.0000000  0.0000000  0.0000000 )
                  (  0.0000000  1.0000000  0.0000000 )
                  (  0.0000000  0.0000000 -1.0000000 )


      isym = 27     inv. 180 deg rotation - cart. axis [0,1,0]   

 cryst.   s(27) = (     1         -1          1      )
                  (     0          0          1      )
                  (     0          1          0      )

 cart.    s(27) = (  1.0000000  0.0000000  0.0000000 )
                  (  0.0000000 -1.0000000  0.0000000 )
                  (  0.0000000  0.0000000  1.0000000 )


      isym = 28     inv. 180 deg rotation - cart. axis [1,0,0]   

 cryst.   s(28) = (     0          1          0      )
                  (     1          0          0      )
                  (     1         -1          1      )

 cart.    s(28) = ( -1.0000000  0.0000000  0.0000000 )
                  (  0.0000000  1.0000000  0.0000000 )
                  (  0.0000000  0.0000000  1.0000000 )


      isym = 29     inv. 180 deg rotation - cart. axis [1,1,0]   

 cryst.   s(29) = (     0          0          1      )
                  (     0          1          0      )
                  (     1          0          0      )

 cart.    s(29) = (  0.0000000 -1.0000000  0.0000000 )
                  ( -1.0000000  0.0000000  0.0000000 )
                  (  0.0000000  0.0000000  1.0000000 )


      isym = 30     inv. 180 deg rotation - cart. axis [1,-1,0]  

 cryst.   s(30) = (     1          0          0      )
                  (     1         -1          1      )
                  (     0          0          1      )

 cart.    s(30) = (  0.0000000  1.0000000  0.0000000 )
                  (  1.0000000  0.0000000  0.0000000 )
                  (  0.0000000  0.0000000  1.0000000 )


      isym = 31     inv.  90 deg rotation - cart. axis [0,0,-1]  

 cryst.   s(31) = (    -1          1         -1      )
                  (    -1          0          0      )
                  (     0         -1          0      )

 cart.    s(31) = (  0.0000000 -1.0000000  0.0000000 )
                  (  1.0000000  0.0000000  0.0000000 )
                  (  0.0000000  0.0000000 -1.0000000 )


      isym = 32     inv.  90 deg rotation - cart. axis [0,0,1]   

 cryst.   s(32) = (     0         -1          0      )
                  (     0          0         -1      )
                  (    -1          1         -1      )

 cart.    s(32) = (  0.0000000  1.0000000  0.0000000 )
                  ( -1.0000000  0.0000000  0.0000000 )
                  (  0.0000000  0.0000000 -1.0000000 )


      isym = 33     inv. 180 deg rotation - cart. axis [1,0,1]   

 cryst.   s(33) = (    -1          1         -1      )
                  (     0          1          0      )
                  (     0          0          1      )

 cart.    s(33) = (  0.0000000  0.0000000 -1.0000000 )
                  (  0.0000000  1.0000000  0.0000000 )
                  ( -1.0000000  0.0000000  0.0000000 )


      isym = 34     inv. 180 deg rotation - cart. axis [-1,0,1]  

 cryst.   s(34) = (     1          0          0      )
                  (     0          0         -1      )
                  (     0         -1          0      )

 cart.    s(34) = (  0.0000000  0.0000000  1.0000000 )
                  (  0.0000000  1.0000000  0.0000000 )
                  (  1.0000000  0.0000000  0.0000000 )


      isym = 35     inv.  90 deg rotation - cart. axis [0,1,0]   

 cryst.   s(35) = (     0          0          1      )
                  (    -1          0          0      )
                  (    -1          1         -1      )

 cart.    s(35) = (  0.0000000  0.0000000 -1.0000000 )
                  (  0.0000000 -1.0000000  0.0000000 )
                  (  1.0000000  0.0000000  0.0000000 )


      isym = 36     inv.  90 deg rotation - cart. axis [0,-1,0]  

 cryst.   s(36) = (     0         -1          0      )
                  (     1         -1          1      )
                  (     1          0          0      )

 cart.    s(36) = (  0.0000000  0.0000000  1.0000000 )
                  (  0.0000000 -1.0000000  0.0000000 )
                  ( -1.0000000  0.0000000  0.0000000 )


      isym = 37     inv. 180 deg rotation - cart. axis [0,1,1]   

 cryst.   s(37) = (     0         -1          0      )
                  (    -1          0          0      )
                  (     0          0          1      )

 cart.    s(37) = (  1.0000000  0.0000000  0.0000000 )
                  (  0.0000000  0.0000000 -1.0000000 )
                  (  0.0000000 -1.0000000  0.0000000 )


      isym = 38     inv. 180 deg rotation - cart. axis [0,1,-1]  

 cryst.   s(38) = (     1          0          0      )
                  (     0          1          0      )
                  (    -1          1         -1      )

 cart.    s(38) = (  1.0000000  0.0000000  0.0000000 )
                  (  0.0000000  0.0000000  1.0000000 )
                  (  0.0000000  1.0000000  0.0000000 )


      isym = 39     inv.  90 deg rotation - cart. axis [-1,0,0]  

 cryst.   s(39) = (     0          0          1      )
                  (     1         -1          1      )
                  (     0         -1          0      )

 cart.    s(39) = ( -1.0000000  0.0000000  0.0000000 )
                  (  0.0000000  0.0000000 -1.0000000 )
                  (  0.0000000  1.0000000  0.0000000 )


      isym = 40     inv.  90 deg rotation - cart. axis [1,0,0]   

 cryst.   s(40) = (    -1          1         -1      )
                  (     0          0         -1      )
                  (     1          0          0      )

 cart.    s(40) = ( -1.0000000  0.0000000  0.0000000 )
                  (  0.0000000  0.0000000  1.0000000 )
                  (  0.0000000 -1.0000000  0.0000000 )


      isym = 41     inv. 120 deg rotation - cart. axis [-1,-1,-1]

 cryst.   s(41) = (    -1          0          0      )
                  (     0          0          1      )
                  (     1         -1          1      )

 cart.    s(41) = (  0.0000000 -1.0000000  0.0000000 )
                  (  0.0000000  0.0000000 -1.0000000 )
                  ( -1.0000000  0.0000000  0.0000000 )


      isym = 42     inv. 120 deg rotation - cart. axis [-1,1,1]  

 cryst.   s(42) = (     1         -1          1      )
                  (     0         -1          0      )
                  (    -1          0          0      )

 cart.    s(42) = (  0.0000000  1.0000000  0.0000000 )
                  (  0.0000000  0.0000000 -1.0000000 )
                  (  1.0000000  0.0000000  0.0000000 )


      isym = 43     inv. 120 deg rotation - cart. axis [1,1,-1]  

 cryst.   s(43) = (     0          1          0      )
                  (    -1          1         -1      )
                  (     0          0         -1      )

 cart.    s(43) = (  0.0000000 -1.0000000  0.0000000 )
                  (  0.0000000  0.0000000  1.0000000 )
                  (  1.0000000  0.0000000  0.0000000 )


      isym = 44     inv. 120 deg rotation - cart. axis [1,-1,1]  

 cryst.   s(44) = (     0          0         -1      )
                  (     1          0          0      )
                  (     0          1          0      )

 cart.    s(44) = (  0.0000000  1.0000000  0.0000000 )
                  (  0.0000000  0.0000000  1.0000000 )
                  ( -1.0000000  0.0000000  0.0000000 )


      isym = 45     inv. 120 deg rotation - cart. axis [1,1,1]   

 cryst.   s(45) = (    -1          0          0      )
                  (    -1          1         -1      )
                  (     0          1          0      )

 cart.    s(45) = (  0.0000000  0.0000000 -1.0000000 )
                  ( -1.0000000  0.0000000  0.0000000 )
                  (  0.0000000 -1.0000000  0.0000000 )


      isym = 46     inv. 120 deg rotation - cart. axis [-1,1,-1] 

 cryst.   s(46) = (     0          1          0      )
                  (     0          0          1      )
                  (    -1          0          0      )

 cart.    s(46) = (  0.0000000  0.0000000 -1.0000000 )
                  (  1.0000000  0.0000000  0.0000000 )
                  (  0.0000000  1.0000000  0.0000000 )


      isym = 47     inv. 120 deg rotation - cart. axis [1,-1,-1] 

 cryst.   s(47) = (     0          0         -1      )
                  (     0         -1          0      )
                  (     1         -1          1      )

 cart.    s(47) = (  0.0000000  0.0000000  1.0000000 )
                  (  1.0000000  0.0000000  0.0000000 )
                  (  0.0000000 -1.0000000  0.0000000 )


      isym = 48     inv. 120 deg rotation - cart. axis [-1,-1,1] 

 cryst.   s(48) = (     1         -1          1      )
                  (     1          0          0      )
                  (     0          0         -1      )

 cart.    s(48) = (  0.0000000  0.0000000  1.0000000 )
                  ( -1.0000000  0.0000000  0.0000000 )
                  (  0.0000000  1.0000000  0.0000000 )


     point group O_h (m-3m) 
     there are 10 classes
     the character table:

       E     8C3   6C2'  6C4   3C2   i     6S4   8S6   3s_h  6s_d 
A_1g   1.00  1.00  1.00  1.00  1.00  1.00  1.00  1.00  1.00  1.00
A_2g   1.00  1.00 -1.00 -1.00  1.00  1.00 -1.00  1.00  1.00 -1.00
E_g    2.00 -1.00  0.00  0.00  2.00  2.00  0.00 -1.00  2.00  0.00
T_1g   3.00  0.00 -1.00  1.00 -1.00  3.00  1.00  0.00 -1.00 -1.00
T_2g   3.00  0.00  1.00 -1.00 -1.00  3.00 -1.00  0.00 -1.00  1.00
A_1u   1.00  1.00  1.00  1.00  1.00 -1.00 -1.00 -1.00 -1.00 -1.00
A_2u   1.00  1.00 -1.00 -1.00  1.00 -1.00  1.00 -1.00 -1.00  1.00
E_u    2.00 -1.00  0.00  0.00  2.00 -2.00  0.00  1.00 -2.00  0.00
T_1u   3.00  0.00 -1.00  1.00 -1.00 -3.00 -1.00  0.00  1.00  1.00
T_2u   3.00  0.00  1.00 -1.00 -1.00 -3.00  1.00  0.00  1.00 -1.00

     the symmetry operations in each class:
     E        1
     3C2      2    4    3
     6C2'     5    6   14   13   10    9
     6C4      7    8   15   16   12   11
     8C3     17   19   20   18   24   21   22   23
     i       25
     3s_h    26   28   27
     6s_d    29   30   38   37   34   33
     6S4     31   32   39   40   36   35
     8S6     41   43   44   42   48   45   46   47

   Cartesian axes

     site n.     atom                  positions (alat units)
         1           Fe1 tau(   1) = (   0.0000000   0.0000000   0.0000000  )
         2           Fe  tau(   2) = (   0.2500000   0.2500000   0.2500000  )
         3           Fe  tau(   3) = (  -0.2500000   0.2500000   0.2500000  )
         4           Fe  tau(   4) = (  -0.2500000  -0.2500000   0.2500000  )
         5           Fe  tau(   5) = (   0.0000000   0.5000000   0.5000000  )
         6           Fe  tau(   6) = (  -0.5000000   0.0000000   0.5000000  )
         7           Fe  tau(   7) = (   0.0000000   0.0000000   0.5000000  )
         8           Fe  tau(   8) = (  -0.2500000   0.2500000   0.7500000  )

   Crystallographic axes

     site n.     atom                  positions (cryst. coord.)
         1           Fe1 tau(   1) = (  0.0000000  0.0000000  0.0000000  )
         2           Fe  tau(   2) = (  0.5000000  0.0000000  0.0000000  )
         3           Fe  tau(   3) = (  0.0000000  0.5000000  0.0000000  )
         4           Fe  tau(   4) = (  0.0000000  0.0000000  0.5000000  )
         5           Fe  tau(   5) = (  0.5000000  0.5000000  0.0000000  )
         6           Fe  tau(   6) = (  0.0000000  0.5000000  0.5000000  )
         7           Fe  tau(   7) = (  0.5000000  0.0000000  0.5000000  )
         8           Fe  tau(   8) = (  0.5000000  0.5000000  0.5000000  )

     number of k points=    16  Methfessel-Paxton smearing, width (Ry)=  0.0100
                       cart. coord. in units 2pi/alat
        k(    1) = (   0.0000000   0.0000000   0.0000000), wk =   0.0156250
        k(    2) = (   0.0000000  -0.2500000   0.2500000), wk =   0.1875000
        k(    3) = (   0.0000000   0.5000000  -0.5000000), wk =   0.0937500
        k(    4) = (  -0.2500000   0.7500000  -0.5000000), wk =   0.3750000
        k(    5) = (   0.0000000   0.0000000   0.5000000), wk =   0.0937500
        k(    6) = (   0.0000000   0.7500000  -0.2500000), wk =   0.1875000
        k(    7) = (   0.5000000  -0.5000000   0.5000000), wk =   0.0312500
        k(    8) = (   0.0000000   0.0000000  -1.0000000), wk =   0.0156250
        k(    9) = (   0.0000000   0.0000000   0.0000000), wk =   0.0156250
        k(   10) = (   0.0000000  -0.2500000   0.2500000), wk =   0.1875000
        k(   11) = (   0.0000000   0.5000000  -0.5000000), wk =   0.0937500
        k(   12) = (  -0.2500000   0.7500000  -0.5000000), wk =   0.3750000
        k(   13) = (   0.0000000   0.0000000   0.5000000), wk =   0.0937500
        k(   14) = (   0.0000000   0.7500000  -0.2500000), wk =   0.1875000
        k(   15) = (   0.5000000  -0.5000000   0.5000000), wk =   0.0312500
        k(   16) = (   0.0000000   0.0000000  -1.0000000), wk =   0.0156250

                       cryst. coord.
        k(    1) = (   0.0000000   0.0000000   0.0000000), wk =   0.0156250
        k(    2) = (   0.0000000   0.0000000   0.2500000), wk =   0.1875000
        k(    3) = (   0.0000000   0.0000000  -0.5000000), wk =   0.0937500
        k(    4) = (   0.0000000   0.2500000  -0.5000000), wk =   0.3750000
        k(    5) = (   0.2500000   0.2500000   0.2500000), wk =   0.0937500
        k(    6) = (   0.2500000   0.2500000  -0.5000000), wk =   0.1875000
        k(    7) = (   0.2500000  -0.2500000   0.2500000), wk =   0.0312500
        k(    8) = (  -0.5000000  -0.5000000  -0.5000000), wk =   0.0156250
        k(    9) = (   0.0000000   0.0000000   0.0000000), wk =   0.0156250
        k(   10) = (   0.0000000   0.0000000   0.2500000), wk =   0.1875000
        k(   11) = (   0.0000000   0.0000000  -0.5000000), wk =   0.0937500
        k(   12) = (   0.0000000   0.2500000  -0.5000000), wk =   0.3750000
        k(   13) = (   0.2500000   0.2500000   0.2500000), wk =   0.0937500
        k(   14) = (   0.2500000   0.2500000  -0.5000000), wk =   0.1875000
        k(   15) = (   0.2500000  -0.2500000   0.2500000), wk =   0.0312500
        k(   16) = (  -0.5000000  -0.5000000  -0.5000000), wk =   0.0156250

     Dense  grid:    73525 G-vectors     FFT dimensions: (  60,  60,  60)

     Smooth grid:    14171 G-vectors     FFT dimensions: (  36,  36,  36)

     Largest allocated arrays     est. size (Mb)     dimensions
        Kohn-Sham Wavefunctions         0.34 Mb     (     450,   50)
        Atomic Hubbard wavefuncts       0.27 Mb     (     450,   40)
        NL pseudopotentials             0.99 Mb     (     450,  144)
        Each V/rho on FFT grid          1.65 Mb     (   54000,   2)
        Each G-vector array             0.14 Mb     (   18382)
        G-vector shells                 0.00 Mb     (     490)
     Largest temporary arrays     est. size (Mb)     dimensions
        Auxiliary wavefunctions         1.37 Mb     (     450,  200)
        Each subspace H/S matrix        0.61 Mb     (     200,  200)
        Each <psi_i|beta_j> matrix      0.11 Mb     (     144,   50)
        Arrays for rho mixing           6.59 Mb     (   54000,    8)

     The initial density is read from file :
     ./temp/fe.save/charge-density.dat

 --- in v_hubbard ---
Hubbard energy   -0.0552
 -------
     Number of +U iterations with fixed ns =  0
     Starting occupations:
 --- enter write_ns ---
 LDA+U parameters:
U( 1)     =  0.00000000
alpha( 1) = -0.10000000
U( 2)     =  0.00000000
alpha( 2) =  0.00000000
atom    1   Tr[ns(na)] (up, down, total) =   4.88168  2.63170  7.51338
   spin  1
    eigenvalues: 
  0.969  0.969  0.969  0.987  0.987
    eigenvectors:
  0.000  0.000  0.000  0.713  0.287
  0.071  0.313  0.616  0.000  0.000
  0.362  0.291  0.347  0.000  0.000
  0.000  0.000  0.000  0.287  0.713
  0.567  0.396  0.037  0.000  0.000
    occupations:
  0.987  0.000  0.000  0.000  0.000
  0.000  0.969  0.000  0.000  0.000
  0.000  0.000  0.969  0.000  0.000
  0.000  0.000  0.000  0.987  0.000
  0.000  0.000  0.000  0.000  0.969
   spin  2
    eigenvalues: 
  0.447  0.447  0.579  0.579  0.579
    eigenvectors:
  0.760  0.240  0.000  0.000  0.000
  0.000  0.000  0.079  0.543  0.377
  0.000  0.000  0.365  0.130  0.504
  0.240  0.760  0.000  0.000  0.000
  0.000  0.000  0.555  0.326  0.118
    occupations:
  0.447  0.000  0.000  0.000  0.000
  0.000  0.579  0.000  0.000  0.000
  0.000  0.000  0.579  0.000  0.000
  0.000  0.000  0.000  0.447  0.000
  0.000  0.000  0.000  0.000  0.579
atomic mag. moment =     2.249974
atom    2   Tr[ns(na)] (up, down, total) =   4.88168  2.63168  7.51337
   spin  1
    eigenvalues: 
  0.969  0.969  0.969  0.987  0.987
    eigenvectors:
  0.000  0.000  0.000  0.588  0.412
  0.333  0.404  0.262  0.000  0.000
  0.333  0.016  0.651  0.000  0.000
  0.000  0.000  0.000  0.412  0.588
  0.333  0.580  0.087  0.000  0.000
    occupations:
  0.987  0.000  0.000  0.000  0.000
  0.000  0.969  0.000  0.000  0.000
  0.000  0.000  0.969  0.000  0.000
  0.000  0.000  0.000  0.987  0.000
  0.000  0.000  0.000  0.000  0.969
   spin  2
    eigenvalues: 
  0.447  0.447  0.579  0.579  0.579
    eigenvectors:
  0.496  0.504  0.000  0.000  0.000
  0.000  0.000  0.381  0.286  0.333
  0.000  0.000  0.024  0.643  0.333
  0.504  0.496  0.000  0.000  0.000
  0.000  0.000  0.595  0.071  0.333
    occupations:
  0.447  0.000  0.000  0.000  0.000
  0.000  0.579  0.000  0.000  0.000
  0.000  0.000  0.579  0.000  0.000
  0.000  0.000  0.000  0.447  0.000
  0.000  0.000  0.000  0.000  0.579
atomic mag. moment =     2.250002
atom    3   Tr[ns(na)] (up, down, total) =   4.88168  2.63168  7.51337
   spin  1
    eigenvalues: 
  0.969  0.969  0.969  0.987  0.987
    eigenvectors:
  0.000  0.000  0.000  0.567  0.433
  0.333  0.011  0.655  0.000  0.000
  0.333  0.569  0.098  0.000  0.000
  0.000  0.000  0.000  0.433  0.567
  0.333  0.420  0.247  0.000  0.000
    occupations:
  0.987  0.000  0.000  0.000  0.000
  0.000  0.969  0.000  0.000  0.000
  0.000  0.000  0.969  0.000  0.000
  0.000  0.000  0.000  0.987  0.000
  0.000  0.000  0.000  0.000  0.969
   spin  2
    eigenvalues: 
  0.447  0.447  0.579  0.579  0.579
    eigenvectors:
  0.586  0.414  0.000  0.000  0.000
  0.000  0.000  0.026  0.641  0.333
  0.000  0.000  0.599  0.068  0.333
  0.414  0.586  0.000  0.000  0.000
  0.000  0.000  0.376  0.291  0.333
    occupations:
  0.447  0.000  0.000  0.000  0.000
  0.000  0.579  0.000  0.000  0.000
  0.000  0.000  0.579  0.000  0.000
  0.000  0.000  0.000  0.447  0.000
  0.000  0.000  0.000  0.000  0.579
atomic mag. moment =     2.250002
atom    4   Tr[ns(na)] (up, down, total) =   4.88168  2.63168  7.51337
   spin  1
    eigenvalues: 
  0.969  0.969  0.969  0.987  0.987
    eigenvectors:
  0.000  0.000  0.000  0.586  0.414
  0.333  0.056  0.610  0.000  0.000
  0.333  0.311  0.355  0.000  0.000
  0.000  0.000  0.000  0.414  0.586
  0.333  0.632  0.034  0.000  0.000
    occupations:
  0.987  0.000  0.000  0.000  0.000
  0.000  0.969  0.000  0.000  0.000
  0.000  0.000  0.969  0.000  0.000
  0.000  0.000  0.000  0.987  0.000
  0.000  0.000  0.000  0.000  0.969
   spin  2
    eigenvalues: 
  0.447  0.447  0.579  0.579  0.579
    eigenvectors:
  0.453  0.547  0.000  0.000  0.000
  0.000  0.000  0.045  0.622  0.333
  0.000  0.000  0.333  0.334  0.333
  0.547  0.453  0.000  0.000  0.000
  0.000  0.000  0.622  0.045  0.333
    occupations:
  0.447  0.000  0.000  0.000  0.000
  0.000  0.579  0.000  0.000  0.000
  0.000  0.000  0.579  0.000  0.000
  0.000  0.000  0.000  0.447  0.000
  0.000  0.000  0.000  0.000  0.579
atomic mag. moment =     2.250002
atom    5   Tr[ns(na)] (up, down, total) =   4.88169  2.63169  7.51338
   spin  1
    eigenvalues: 
  0.969  0.969  0.969  0.987  0.987
    eigenvectors:
  0.000  0.000  0.000  0.250  0.750
  0.062  0.938  0.000  0.000  0.000
  0.000  0.000  1.000  0.000  0.000
  0.000  0.000  0.000  0.750  0.250
  0.938  0.062  0.000  0.000  0.000
    occupations:
  0.987  0.000  0.000  0.000  0.000
  0.000  0.969  0.000  0.000  0.000
  0.000  0.000  0.969  0.000  0.000
  0.000  0.000  0.000  0.987  0.000
  0.000  0.000  0.000  0.000  0.969
   spin  2
    eigenvalues: 
  0.447  0.447  0.579  0.579  0.579
    eigenvectors:
  0.250  0.750  0.000  0.000  0.000
  0.000  0.000  0.000  0.065  0.935
  0.000  0.000  1.000  0.000  0.000
  0.750  0.250  0.000  0.000  0.000
  0.000  0.000  0.000  0.935  0.065
    occupations:
  0.447  0.000  0.000  0.000  0.000
  0.000  0.579  0.000  0.000  0.000
  0.000  0.000  0.579  0.000  0.000
  0.000  0.000  0.000  0.447  0.000
  0.000  0.000  0.000  0.000  0.579
atomic mag. moment =     2.250000
atom    6   Tr[ns(na)] (up, down, total) =   4.88169  2.63169  7.51338
   spin  1
    eigenvalues: 
  0.969  0.969  0.969  0.987  0.987
    eigenvectors:
  0.000  0.000  0.000  0.250  0.750
  0.000  0.000  1.000  0.000  0.000
  0.358  0.642  0.000  0.000  0.000
  0.000  0.000  0.000  0.750  0.250
  0.642  0.358  0.000  0.000  0.000
    occupations:
  0.987  0.000  0.000  0.000  0.000
  0.000  0.969  0.000  0.000  0.000
  0.000  0.000  0.969  0.000  0.000
  0.000  0.000  0.000  0.987  0.000
  0.000  0.000  0.000  0.000  0.969
   spin  2
    eigenvalues: 
  0.447  0.447  0.579  0.579  0.579
    eigenvectors:
  0.250  0.750  0.000  0.000  0.000
  0.000  0.000  1.000  0.000  0.000
  0.000  0.000  0.000  0.332  0.668
  0.750  0.250  0.000  0.000  0.000
  0.000  0.000  0.000  0.668  0.332
    occupations:
  0.447  0.000  0.000  0.000  0.000
  0.000  0.579  0.000  0.000  0.000
  0.000  0.000  0.579  0.000  0.000
  0.000  0.000  0.000  0.447  0.000
  0.000  0.000  0.000  0.000  0.579
atomic mag. moment =     2.250000
atom    7   Tr[ns(na)] (up, down, total) =   4.88169  2.63169  7.51338
   spin  1
    eigenvalues: 
  0.969  0.969  0.969  0.987  0.987
    eigenvectors:
  0.000  0.000  0.000  1.000  0.000
  0.220  0.780  0.000  0.000  0.000
  0.780  0.220  0.000  0.000  0.000
  0.000  0.000  0.000  0.000  1.000
  0.000  0.000  1.000  0.000  0.000
    occupations:
  0.987  0.000  0.000  0.000  0.000
  0.000  0.969  0.000  0.000  0.000
  0.000  0.000  0.969  0.000  0.000
  0.000  0.000  0.000  0.987  0.000
  0.000  0.000  0.000  0.000  0.969
   spin  2
    eigenvalues: 
  0.447  0.447  0.579  0.579  0.579
    eigenvectors:
  1.000  0.000  0.000  0.000  0.000
  0.000  0.000  0.000  0.277  0.723
  0.000  0.000  0.000  0.723  0.277
  0.000  1.000  0.000  0.000  0.000
  0.000  0.000  1.000  0.000  0.000
    occupations:
  0.447  0.000  0.000  0.000  0.000
  0.000  0.579  0.000  0.000  0.000
  0.000  0.000  0.579  0.000  0.000
  0.000  0.000  0.000  0.447  0.000
  0.000  0.000  0.000  0.000  0.579
atomic mag. moment =     2.250000
atom    8   Tr[ns(na)] (up, down, total) =   4.88168  2.63168  7.51337
   spin  1
    eigenvalues: 
  0.969  0.969  0.969  0.987  0.987
    eigenvectors:
  0.000  0.000  0.000  0.500  0.500
  0.333  0.666  0.001  0.000  0.000
  0.333  0.147  0.520  0.000  0.000
  0.000  0.000  0.000  0.500  0.500
  0.333  0.188  0.479  0.000  0.000
    occupations:
  0.987  0.000  0.000  0.000  0.000
  0.000  0.969  0.000  0.000  0.000
  0.000  0.000  0.969  0.000  0.000
  0.000  0.000  0.000  0.987  0.000
  0.000  0.000  0.000  0.000  0.969
   spin  2
    eigenvalues: 
  0.447  0.447  0.579  0.579  0.579
    eigenvectors:
  0.540  0.460  0.000  0.000  0.000
  0.000  0.000  0.665  0.002  0.333
  0.000  0.000  0.136  0.530  0.333
  0.460  0.540  0.000  0.000  0.000
  0.000  0.000  0.199  0.468  0.333
    occupations:
  0.447  0.000  0.000  0.000  0.000
  0.000  0.579  0.000  0.000  0.000
  0.000  0.000  0.579  0.000  0.000
  0.000  0.000  0.000  0.447  0.000
  0.000  0.000  0.000  0.000  0.579
atomic mag. moment =     2.250002
N of occupied +U levels =   60.106981
 --- exit write_ns ---
 Atomic wfc used for LDA+U Projector are NOT orthogonalized
     Starting wfc from file

     total cpu time spent up to now is        2.1 secs

     per-process dynamical memory:    25.7 Mb

     Self-consistent Calculation

     iteration #  1     ecut=    30.00 Ry     beta=0.30
     Davidson diagonalization with overlap
     c_bands:  2 eigenvalues not converged
     c_bands:  4 eigenvalues not converged
     c_bands:  2 eigenvalues not converged
     c_bands:  3 eigenvalues not converged
     c_bands:  1 eigenvalues not converged
     c_bands:  1 eigenvalues not converged
     c_bands:  4 eigenvalues not converged
     c_bands:  2 eigenvalues not converged
     ethr =  1.72E-12,  avg # of iterations = 13.6
 --- enter write_ns ---
 LDA+U parameters:
U( 1)     =  0.00000000
alpha( 1) = -0.10000000
U( 2)     =  0.00000000
alpha( 2) =  0.00000000
atom    1   Tr[ns(na)] (up, down, total) =   4.89127  2.71271  7.60398
   spin  1
    eigenvalues: 
  0.972  0.972  0.972  0.988  0.988
    eigenvectors:
  0.000  0.000  0.000  0.644  0.356
  0.073  0.571  0.356  0.000  0.000
  0.324  0.140  0.536  0.000  0.000
  0.000  0.000  0.000  0.356  0.644
  0.602  0.290  0.108  0.000  0.000
    occupations:
  0.988  0.000  0.000  0.000  0.000
  0.000  0.972  0.000  0.000  0.000
  0.000  0.000  0.972  0.000  0.000
  0.000  0.000  0.000  0.988  0.000
  0.000  0.000  0.000  0.000  0.972
   spin  2
    eigenvalues: 
  0.460  0.460  0.597  0.597  0.597
    eigenvectors:
  0.378  0.622  0.000  0.000  0.000
  0.000  0.000  0.072  0.438  0.490
  0.000  0.000  0.354  0.209  0.437
  0.622  0.378  0.000  0.000  0.000
  0.000  0.000  0.573  0.353  0.073
    occupations:
  0.460  0.000  0.000  0.000  0.000
  0.000  0.597  0.000  0.000  0.000
  0.000  0.000  0.597  0.000  0.000
  0.000  0.000  0.000  0.460  0.000
  0.000  0.000  0.000  0.000  0.597
atomic mag. moment =     2.178559
atom    2   Tr[ns(na)] (up, down, total) =   4.88113  2.61874  7.49987
   spin  1
    eigenvalues: 
  0.968  0.968  0.970  0.987  0.987
    eigenvectors:
  0.000  0.000  0.000  0.585  0.415
  0.468  0.199  0.333  0.000  0.000
  0.002  0.665  0.333  0.000  0.000
  0.000  0.000  0.000  0.415  0.585
  0.530  0.137  0.333  0.000  0.000
    occupations:
  0.987  0.000  0.000  0.000  0.000
  0.000  0.969  0.000  0.000  0.000
  0.000  0.000  0.969  0.000  0.000
  0.000  0.000  0.000  0.987  0.000
  0.000  0.000  0.000  0.000  0.969
   spin  2
    eigenvalues: 
  0.444  0.444  0.576  0.577  0.577
    eigenvectors:
  0.449  0.550  0.000  0.000  0.000
  0.000  0.000  0.333  0.472  0.195
  0.000  0.000  0.333  0.001  0.665
  0.550  0.449  0.000  0.000  0.000
  0.000  0.000  0.333  0.526  0.140
    occupations:
  0.444  0.001  0.001  0.000  0.001
  0.001  0.577 -0.001  0.001  0.001
  0.001 -0.001  0.577 -0.001  0.001
  0.000  0.001 -0.001  0.444  0.000
  0.001  0.001  0.001  0.000  0.577
atomic mag. moment =     2.262394
atom    3   Tr[ns(na)] (up, down, total) =   4.88113  2.61874  7.49987
   spin  1
    eigenvalues: 
  0.968  0.968  0.970  0.987  0.987
    eigenvectors:
  0.000  0.000  0.000  0.595  0.405
  0.022  0.645  0.333  0.000  0.000
  0.591  0.075  0.333  0.000  0.000
  0.000  0.000  0.000  0.405  0.595
  0.387  0.280  0.333  0.000  0.000
    occupations:
  0.987  0.000  0.000  0.000  0.000
  0.000  0.969  0.000  0.000  0.000
  0.000  0.000  0.969  0.000  0.000
  0.000  0.000  0.000  0.987  0.000
  0.000  0.000  0.000  0.000  0.969
   spin  2
    eigenvalues: 
  0.444  0.444  0.576  0.577  0.577
    eigenvectors:
  0.577  0.423  0.000  0.000  0.000
  0.000  0.000  0.333  0.016  0.651
  0.000  0.000  0.333  0.580  0.087
  0.423  0.577  0.000  0.000  0.000
  0.000  0.000  0.333  0.405  0.262
    occupations:
  0.444 -0.001  0.001  0.000 -0.001
 -0.001  0.577  0.001 -0.001  0.001
  0.001  0.001  0.577 -0.001 -0.001
  0.000 -0.001 -0.001  0.444  0.000
 -0.001  0.001 -0.001  0.000  0.577
atomic mag. moment =     2.262394
atom    4   Tr[ns(na)] (up, down, total) =   4.88113  2.61874  7.49987
   spin  1
    eigenvalues: 
  0.968  0.968  0.970  0.987  0.987
    eigenvectors:
  0.000  0.000  0.000  0.618  0.382
  0.058  0.608  0.333  0.000  0.000
  0.308  0.359  0.333  0.000  0.000
  0.000  0.000  0.000  0.382  0.618
  0.634  0.033  0.333  0.000  0.000
    occupations:
  0.987  0.000  0.000  0.000  0.000
  0.000  0.969  0.000  0.000  0.000
  0.000  0.000  0.969  0.000  0.000
  0.000  0.000  0.000  0.987  0.000
  0.000  0.000  0.000  0.000  0.969
   spin  2
    eigenvalues: 
  0.444  0.444  0.576  0.577  0.577
    eigenvectors:
  0.510  0.490  0.000  0.000  0.000
  0.000  0.000  0.333  0.059  0.607
  0.000  0.000  0.333  0.306  0.361
  0.490  0.510  0.000  0.000  0.000
  0.000  0.000  0.333  0.635  0.032
    occupations:
  0.444 -0.001 -0.001  0.000  0.001
 -0.001  0.577 -0.001 -0.001 -0.001
 -0.001 -0.001  0.577  0.001 -0.001
  0.000 -0.001  0.001  0.444  0.000
  0.001 -0.001 -0.001  0.000  0.577
atomic mag. moment =     2.262394
atom    5   Tr[ns(na)] (up, down, total) =   4.87987  2.62505  7.50492
   spin  1
    eigenvalues: 
  0.968  0.969  0.969  0.987  0.987
    eigenvectors:
  0.000  0.000  0.000  0.750  0.250
  0.000  0.076  0.924  0.000  0.000
  1.000  0.000  0.000  0.000  0.000
  0.000  0.000  0.000  0.250  0.750
  0.000  0.924  0.076  0.000  0.000
    occupations:
  0.987  0.000  0.000  0.000  0.000
  0.000  0.969  0.000  0.000  0.000
  0.000  0.000  0.968  0.000  0.000
  0.000  0.000  0.000  0.987  0.000
  0.000  0.000  0.000  0.000  0.969
   spin  2
    eigenvalues: 
  0.446  0.447  0.577  0.578  0.578
    eigenvectors:
  0.250  0.750  0.000  0.000  0.000
  0.000  0.000  0.000  0.065  0.935
  0.000  0.000  1.000  0.000  0.000
  0.750  0.250  0.000  0.000  0.000
  0.000  0.000  0.000  0.935  0.065
    occupations:
  0.447  0.000  0.000  0.000  0.000
  0.000  0.578  0.000  0.000  0.000
  0.000  0.000  0.577  0.000  0.000
  0.000  0.000  0.000  0.446  0.000
  0.000  0.000  0.000  0.000  0.578
atomic mag. moment =     2.254827
atom    6   Tr[ns(na)] (up, down, total) =   4.87987  2.62505  7.50492
   spin  1
    eigenvalues: 
  0.968  0.969  0.969  0.987  0.987
    eigenvectors:
  0.000  0.000  0.000  0.750  0.250
  1.000  0.000  0.000  0.000  0.000
  0.000  0.363  0.637  0.000  0.000
  0.000  0.000  0.000  0.250  0.750
  0.000  0.637  0.363  0.000  0.000
    occupations:
  0.987  0.000  0.000  0.000  0.000
  0.000  0.968  0.000  0.000  0.000
  0.000  0.000  0.969  0.000  0.000
  0.000  0.000  0.000  0.987  0.000
  0.000  0.000  0.000  0.000  0.969
   spin  2
    eigenvalues: 
  0.446  0.447  0.577  0.578  0.578
    eigenvectors:
  0.250  0.750  0.000  0.000  0.000
  0.000  0.000  1.000  0.000  0.000
  0.000  0.000  0.000  0.367  0.633
  0.750  0.250  0.000  0.000  0.000
  0.000  0.000  0.000  0.633  0.367
    occupations:
  0.447  0.000  0.000  0.000  0.000
  0.000  0.577  0.000  0.000  0.000
  0.000  0.000  0.578  0.000  0.000
  0.000  0.000  0.000  0.446  0.000
  0.000  0.000  0.000  0.000  0.578
atomic mag. moment =     2.254827
atom    7   Tr[ns(na)] (up, down, total) =   4.87987  2.62505  7.50492
   spin  1
    eigenvalues: 
  0.968  0.969  0.969  0.987  0.987
    eigenvectors:
  0.000  0.000  0.000  0.000  1.000
  0.000  0.274  0.726  0.000  0.000
  0.000  0.726  0.274  0.000  0.000
  0.000  0.000  0.000  1.000  0.000
  1.000  0.000  0.000  0.000  0.000
    occupations:
  0.987  0.000  0.000  0.000  0.000
  0.000  0.969  0.000  0.000  0.000
  0.000  0.000  0.969  0.000  0.000
  0.000  0.000  0.000  0.987  0.000
  0.000  0.000  0.000  0.000  0.968
   spin  2
    eigenvalues: 
  0.446  0.447  0.577  0.578  0.578
    eigenvectors:
  1.000  0.000  0.000  0.000  0.000
  0.000  0.000  0.000  0.260  0.740
  0.000  0.000  0.000  0.740  0.260
  0.000  1.000  0.000  0.000  0.000
  0.000  0.000  1.000  0.000  0.000
    occupations:
  0.446  0.000  0.000  0.000  0.000
  0.000  0.578  0.000  0.000  0.000
  0.000  0.000  0.578  0.000  0.000
  0.000  0.000  0.000  0.447  0.000
  0.000  0.000  0.000  0.000  0.577
atomic mag. moment =     2.254827
atom    8   Tr[ns(na)] (up, down, total) =   4.88113  2.61874  7.49987
   spin  1
    eigenvalues: 
  0.968  0.968  0.970  0.987  0.987
    eigenvectors:
  0.000  0.000  0.000  0.697  0.303
  0.658  0.009  0.333  0.000  0.000
  0.106  0.561  0.333  0.000  0.000
  0.000  0.000  0.000  0.303  0.697
  0.236  0.431  0.333  0.000  0.000
    occupations:
  0.987  0.000  0.000  0.000  0.000
  0.000  0.969  0.000  0.000  0.000
  0.000  0.000  0.969  0.000  0.000
  0.000  0.000  0.000  0.987  0.000
  0.000  0.000  0.000  0.000  0.969
   spin  2
    eigenvalues: 
  0.444  0.444  0.576  0.577  0.577
    eigenvectors:
  0.432  0.568  0.000  0.000  0.000
  0.000  0.000  0.333  0.659  0.007
  0.000  0.000  0.333  0.111  0.556
  0.568  0.432  0.000  0.000  0.000
  0.000  0.000  0.333  0.230  0.437
    occupations:
  0.444  0.001 -0.001  0.000 -0.001
  0.001  0.577  0.001  0.001 -0.001
 -0.001  0.001  0.577  0.001  0.001
  0.000  0.001  0.001  0.444  0.000
 -0.001 -0.001  0.001  0.000  0.577
atomic mag. moment =     2.262394
N of occupied +U levels =   60.118233
 --- exit write_ns ---
 --- in v_hubbard ---
Hubbard energy   -0.0554
 -------
 
     Magnetic moment per site:
     atom:    1    charge:    6.5020    magn:    2.5076    constr:    0.0000
     atom:    2    charge:    6.4739    magn:    2.5274    constr:    0.0000
     atom:    3    charge:    6.4739    magn:    2.5274    constr:    0.0000
     atom:    4    charge:    6.4739    magn:    2.5274    constr:    0.0000
     atom:    5    charge:    6.4751    magn:    2.5253    constr:    0.0000
     atom:    6    charge:    6.4751    magn:    2.5253    constr:    0.0000
     atom:    7    charge:    6.4751    magn:    2.5253    constr:    0.0000
     atom:    8    charge:    6.4739    magn:    2.5274    constr:    0.0000

     total cpu time spent up to now is       14.8 secs

     total energy              =    -446.46788819 Ry
     Harris-Foulkes estimate   =    -446.46985897 Ry
     estimated scf accuracy    <       0.00423586 Ry

     total magnetization       =    19.53 Bohr mag/cell
     absolute magnetization    =    20.98 Bohr mag/cell

     iteration #  2     ecut=    30.00 Ry     beta=0.30
     Davidson diagonalization with overlap
     ethr =  6.62E-06,  avg # of iterations =  2.2
 --- enter write_ns ---
 LDA+U parameters:
U( 1)     =  0.00000000
alpha( 1) = -0.10000000
U( 2)     =  0.00000000
alpha( 2) =  0.00000000
atom    1   Tr[ns(na)] (up, down, total) =   4.82875  2.45231  7.28105
   spin  1
    eigenvalues: 
  0.956  0.956  0.956  0.981  0.981
    eigenvectors:
  0.000  0.000  0.000  0.605  0.395
  0.068  0.322  0.610  0.000  0.000
  0.346  0.300  0.353  0.000  0.000
  0.000  0.000  0.000  0.395  0.605
  0.585  0.378  0.036  0.000  0.000
    occupations:
  0.981  0.000  0.000  0.000  0.000
  0.000  0.956  0.000  0.000  0.000
  0.000  0.000  0.956  0.000  0.000
  0.000  0.000  0.000  0.981  0.000
  0.000  0.000  0.000  0.000  0.956
   spin  2
    eigenvalues: 
  0.421  0.421  0.537  0.537  0.537
    eigenvectors:
  0.506  0.494  0.000  0.000  0.000
  0.000  0.000  0.072  0.490  0.439
  0.000  0.000  0.348  0.180  0.472
  0.494  0.506  0.000  0.000  0.000
  0.000  0.000  0.581  0.330  0.089
    occupations:
  0.421  0.000  0.000  0.000  0.000
  0.000  0.537  0.000  0.000  0.000
  0.000  0.000  0.537  0.000  0.000
  0.000  0.000  0.000  0.421  0.000
  0.000  0.000  0.000  0.000  0.537
atomic mag. moment =     2.376442
atom    2   Tr[ns(na)] (up, down, total) =   4.88774  2.66034  7.54808
   spin  1
    eigenvalues: 
  0.966  0.973  0.973  0.988  0.988
    eigenvectors:
  0.000  0.000  0.000  0.594  0.406
  0.333  0.424  0.243  0.000  0.000
  0.333  0.010  0.656  0.000  0.000
  0.000  0.000  0.000  0.406  0.594
  0.333  0.566  0.101  0.000  0.000
    occupations:
  0.988  0.000  0.000  0.000  0.000
  0.000  0.971 -0.002  0.000  0.002
  0.000 -0.002  0.971  0.000  0.002
  0.000  0.000  0.000  0.988  0.000
  0.000  0.002  0.002  0.000  0.971
   spin  2
    eigenvalues: 
  0.452  0.452  0.585  0.585  0.588
    eigenvectors:
  0.630  0.369  0.000  0.000  0.000
  0.000  0.000  0.450  0.217  0.333
  0.000  0.000  0.005  0.662  0.333
  0.369  0.630  0.000  0.000  0.000
  0.000  0.000  0.545  0.121  0.333
    occupations:
  0.452 -0.001 -0.001  0.000 -0.002
 -0.001  0.586  0.001 -0.002 -0.001
 -0.001  0.001  0.586  0.002 -0.001
  0.000 -0.002  0.002  0.452  0.000
 -0.002 -0.001 -0.001  0.000  0.586
atomic mag. moment =     2.227395
atom    3   Tr[ns(na)] (up, down, total) =   4.88774  2.66034  7.54808
   spin  1
    eigenvalues: 
  0.966  0.973  0.973  0.988  0.988
    eigenvectors:
  0.000  0.000  0.000  0.548  0.452
  0.333  0.019  0.648  0.000  0.000
  0.333  0.586  0.081  0.000  0.000
  0.000  0.000  0.000  0.452  0.548
  0.333  0.396  0.271  0.000  0.000
    occupations:
  0.988  0.000  0.000  0.000  0.000
  0.000  0.971  0.002  0.000  0.002
  0.000  0.002  0.971  0.000 -0.002
  0.000  0.000  0.000  0.988  0.000
  0.000  0.002 -0.002  0.000  0.971
   spin  2
    eigenvalues: 
  0.452  0.452  0.585  0.585  0.588
    eigenvectors:
  0.452  0.548  0.000  0.000  0.000
  0.000  0.000  0.018  0.648  0.333
  0.000  0.000  0.584  0.082  0.333
  0.548  0.452  0.000  0.000  0.000
  0.000  0.000  0.397  0.269  0.333
    occupations:
  0.452  0.001 -0.001  0.000  0.002
  0.001  0.586 -0.001  0.002 -0.001
 -0.001 -0.001  0.586  0.002  0.001
  0.000  0.002  0.002  0.452  0.000
  0.002 -0.001  0.001  0.000  0.586
atomic mag. moment =     2.227395
atom    4   Tr[ns(na)] (up, down, total) =   4.88774  2.66034  7.54808
   spin  1
    eigenvalues: 
  0.966  0.973  0.973  0.988  0.988
    eigenvectors:
  0.000  0.000  0.000  0.532  0.468
  0.333  0.057  0.610  0.000  0.000
  0.333  0.311  0.356  0.000  0.000
  0.000  0.000  0.000  0.468  0.532
  0.333  0.633  0.034  0.000  0.000
    occupations:
  0.988  0.000  0.000  0.000  0.000
  0.000  0.971 -0.002  0.000 -0.002
  0.000 -0.002  0.971  0.000 -0.002
  0.000  0.000  0.000  0.988  0.000
  0.000 -0.002 -0.002  0.000  0.971
   spin  2
    eigenvalues: 
  0.452  0.452  0.585  0.585  0.588
    eigenvectors:
  0.607  0.392  0.000  0.000  0.000
  0.000  0.000  0.053  0.613  0.333
  0.000  0.000  0.317  0.350  0.333
  0.392  0.607  0.000  0.000  0.000
  0.000  0.000  0.630  0.037  0.333
    occupations:
  0.452  0.001  0.001  0.000 -0.002
  0.001  0.586  0.001  0.002  0.001
  0.001  0.001  0.586 -0.002  0.001
  0.000  0.002 -0.002  0.452  0.000
 -0.002  0.001  0.001  0.000  0.586
atomic mag. moment =     2.227395
atom    5   Tr[ns(na)] (up, down, total) =   4.89400  2.65384  7.54784
   spin  1
    eigenvalues: 
  0.971  0.971  0.976  0.988  0.989
    eigenvectors:
  0.000  0.000  0.000  0.250  0.750
  0.060  0.940  0.000  0.000  0.000
  0.000  0.000  1.000  0.000  0.000
  0.000  0.000  0.000  0.750  0.250
  0.940  0.060  0.000  0.000  0.000
    occupations:
  0.989  0.000  0.000  0.000  0.000
  0.000  0.971  0.000  0.000  0.000
  0.000  0.000  0.976  0.000  0.000
  0.000  0.000  0.000  0.988  0.000
  0.000  0.000  0.000  0.000  0.971
   spin  2
    eigenvalues: 
  0.448  0.451  0.585  0.585  0.586
    eigenvectors:
  0.750  0.250  0.000  0.000  0.000
  0.000  0.000  0.074  0.926  0.000
  0.000  0.000  0.000  0.000  1.000
  0.250  0.750  0.000  0.000  0.000
  0.000  0.000  0.926  0.074  0.000
    occupations:
  0.448  0.000  0.000 -0.001  0.000
  0.000  0.585  0.000  0.000  0.000
  0.000  0.000  0.586  0.000  0.000
 -0.001  0.000  0.000  0.450  0.000
  0.000  0.000  0.000  0.000  0.585
atomic mag. moment =     2.240151
atom    6   Tr[ns(na)] (up, down, total) =   4.89400  2.65384  7.54784
   spin  1
    eigenvalues: 
  0.971  0.971  0.976  0.988  0.989
    eigenvectors:
  0.000  0.000  0.000  0.250  0.750
  0.000  0.000  1.000  0.000  0.000
  0.348  0.652  0.000  0.000  0.000
  0.000  0.000  0.000  0.750  0.250
  0.652  0.348  0.000  0.000  0.000
    occupations:
  0.989  0.000  0.000  0.000  0.000
  0.000  0.976  0.000  0.000  0.000
  0.000  0.000  0.971  0.000  0.000
  0.000  0.000  0.000  0.988  0.000
  0.000  0.000  0.000  0.000  0.971
   spin  2
    eigenvalues: 
  0.448  0.451  0.585  0.585  0.586
    eigenvectors:
  0.750  0.250  0.000  0.000  0.000
  0.000  0.000  0.000  0.000  1.000
  0.000  0.000  0.353  0.647  0.000
  0.250  0.750  0.000  0.000  0.000
  0.000  0.000  0.647  0.353  0.000
    occupations:
  0.448  0.000  0.000  0.001  0.000
  0.000  0.586  0.000  0.000  0.000
  0.000  0.000  0.585  0.000  0.000
  0.001  0.000  0.000  0.450  0.000
  0.000  0.000  0.000  0.000  0.585
atomic mag. moment =     2.240151
atom    7   Tr[ns(na)] (up, down, total) =   4.89400  2.65384  7.54784
   spin  1
    eigenvalues: 
  0.971  0.971  0.976  0.988  0.989
    eigenvectors:
  0.000  0.000  0.000  1.000  0.000
  0.221  0.779  0.000  0.000  0.000
  0.779  0.221  0.000  0.000  0.000
  0.000  0.000  0.000  0.000  1.000
  0.000  0.000  1.000  0.000  0.000
    occupations:
  0.988  0.000  0.000  0.000  0.000
  0.000  0.971  0.000  0.000  0.000
  0.000  0.000  0.971  0.000  0.000
  0.000  0.000  0.000  0.989  0.000
  0.000  0.000  0.000  0.000  0.976
   spin  2
    eigenvalues: 
  0.448  0.451  0.585  0.585  0.586
    eigenvectors:
  0.000  1.000  0.000  0.000  0.000
  0.000  0.000  0.235  0.765  0.000
  0.000  0.000  0.765  0.235  0.000
  1.000  0.000  0.000  0.000  0.000
  0.000  0.000  0.000  0.000  1.000
    occupations:
  0.451  0.000  0.000  0.000  0.000
  0.000  0.585  0.000  0.000  0.000
  0.000  0.000  0.585  0.000  0.000
  0.000  0.000  0.000  0.448  0.000
  0.000  0.000  0.000  0.000  0.586
atomic mag. moment =     2.240151
atom    8   Tr[ns(na)] (up, down, total) =   4.88774  2.66034  7.54808
   spin  1
    eigenvalues: 
  0.966  0.973  0.973  0.988  0.988
    eigenvectors:
  0.000  0.000  0.000  0.609  0.391
  0.333  0.659  0.007  0.000  0.000
  0.333  0.110  0.557  0.000  0.000
  0.000  0.000  0.000  0.391  0.609
  0.333  0.231  0.436  0.000  0.000
    occupations:
  0.988  0.000  0.000  0.000  0.000
  0.000  0.971  0.002  0.000 -0.002
  0.000  0.002  0.971  0.000  0.002
  0.000  0.000  0.000  0.988  0.000
  0.000 -0.002  0.002  0.000  0.971
   spin  2
    eigenvalues: 
  0.452  0.452  0.585  0.585  0.588
    eigenvectors:
  0.690  0.310  0.000  0.000  0.000
  0.000  0.000  0.665  0.001  0.333
  0.000  0.000  0.143  0.524  0.333
  0.310  0.690  0.000  0.000  0.000
  0.000  0.000  0.192  0.475  0.333
    occupations:
  0.452 -0.001  0.001  0.000  0.002
 -0.001  0.586 -0.001 -0.002  0.001
  0.001 -0.001  0.586 -0.002 -0.001
  0.000 -0.002 -0.002  0.452  0.000
  0.002  0.001 -0.001  0.000  0.586
atomic mag. moment =     2.227395
N of occupied +U levels =   60.116879
 --- exit write_ns ---
 --- in v_hubbard ---
Hubbard energy   -0.0553
 -------
 
     Magnetic moment per site:
     atom:    1    charge:    6.4836    magn:    2.5129    constr:    0.0000
     atom:    2    charge:    6.4766    magn:    2.5263    constr:    0.0000
     atom:    3    charge:    6.4766    magn:    2.5263    constr:    0.0000
     atom:    4    charge:    6.4766    magn:    2.5263    constr:    0.0000
     atom:    5    charge:    6.4777    magn:    2.5251    constr:    0.0000
     atom:    6    charge:    6.4777    magn:    2.5251    constr:    0.0000
     atom:    7    charge:    6.4777    magn:    2.5251    constr:    0.0000
     atom:    8    charge:    6.4766    magn:    2.5263    constr:    0.0000

     total cpu time spent up to now is       19.3 secs

     total energy              =    -446.46635888 Ry
     Harris-Foulkes estimate   =    -446.47291405 Ry
     estimated scf accuracy    <       0.05496318 Ry

     total magnetization       =    19.55 Bohr mag/cell
     absolute magnetization    =    20.99 Bohr mag/cell

     iteration #  3     ecut=    30.00 Ry     beta=0.30
     Davidson diagonalization with overlap
     ethr =  6.62E-06,  avg # of iterations =  1.8
 --- enter write_ns ---
 LDA+U parameters:
U( 1)     =  0.00000000
alpha( 1) = -0.10000000
U( 2)     =  0.00000000
alpha( 2) =  0.00000000
atom    1   Tr[ns(na)] (up, down, total) =   4.87898  2.66061  7.53959
   spin  1
    eigenvalues: 
  0.968  0.968  0.968  0.987  0.987
    eigenvectors:
  0.000  0.000  0.000  0.566  0.434
  0.071  0.451  0.478  0.000  0.000
  0.342  0.209  0.449  0.000  0.000
  0.000  0.000  0.000  0.434  0.566
  0.587  0.339  0.073  0.000  0.000
    occupations:
  0.987  0.000  0.000  0.000  0.000
  0.000  0.968  0.000  0.000  0.000
  0.000  0.000  0.968  0.000  0.000
  0.000  0.000  0.000  0.987  0.000
  0.000  0.000  0.000  0.000  0.968
   spin  2
    eigenvalues: 
  0.452  0.452  0.585  0.585  0.585
    eigenvectors:
  0.584  0.416  0.000  0.000  0.000
  0.000  0.000  0.079  0.496  0.426
  0.000  0.000  0.338  0.173  0.489
  0.416  0.584  0.000  0.000  0.000
  0.000  0.000  0.583  0.331  0.086
    occupations:
  0.452  0.000  0.000  0.000  0.000
  0.000  0.585  0.000  0.000  0.000
  0.000  0.000  0.585  0.000  0.000
  0.000  0.000  0.000  0.452  0.000
  0.000  0.000  0.000  0.000  0.585
atomic mag. moment =     2.218366
atom    2   Tr[ns(na)] (up, down, total) =   4.88222  2.63132  7.51354
   spin  1
    eigenvalues: 
  0.969  0.969  0.969  0.988  0.988
    eigenvectors:
  0.000  0.000  0.000  0.548  0.452
  0.333  0.427  0.240  0.000  0.000
  0.333  0.009  0.657  0.000  0.000
  0.000  0.000  0.000  0.452  0.548
  0.333  0.564  0.103  0.000  0.000
    occupations:
  0.988  0.000  0.000  0.000  0.000
  0.000  0.969  0.000  0.000  0.000
  0.000  0.000  0.969  0.000  0.000
  0.000  0.000  0.000  0.988  0.000
  0.000  0.000  0.000  0.000  0.969
   spin  2
    eigenvalues: 
  0.446  0.446  0.579  0.580  0.580
    eigenvectors:
  0.498  0.502  0.000  0.000  0.000
  0.000  0.000  0.333  0.474  0.193
  0.000  0.000  0.333  0.001  0.665
  0.502  0.498  0.000  0.000  0.000
  0.000  0.000  0.333  0.525  0.142
    occupations:
  0.446  0.000  0.000  0.000  0.000
  0.000  0.580  0.000  0.000  0.000
  0.000  0.000  0.580  0.000  0.000
  0.000  0.000  0.000  0.446  0.000
  0.000  0.000  0.000  0.000  0.580
atomic mag. moment =     2.250893
atom    3   Tr[ns(na)] (up, down, total) =   4.88222  2.63132  7.51354
   spin  1
    eigenvalues: 
  0.969  0.969  0.969  0.988  0.988
    eigenvectors:
  0.000  0.000  0.000  0.609  0.391
  0.333  0.020  0.647  0.000  0.000
  0.333  0.588  0.078  0.000  0.000
  0.000  0.000  0.000  0.391  0.609
  0.333  0.392  0.275  0.000  0.000
    occupations:
  0.988  0.000  0.000  0.000  0.000
  0.000  0.969  0.000  0.000  0.000
  0.000  0.000  0.969  0.000  0.000
  0.000  0.000  0.000  0.988  0.000
  0.000  0.000  0.000  0.000  0.969
   spin  2
    eigenvalues: 
  0.446  0.446  0.579  0.580  0.580
    eigenvectors:
  0.632  0.368  0.000  0.000  0.000
  0.000  0.000  0.333  0.025  0.642
  0.000  0.000  0.333  0.597  0.070
  0.368  0.632  0.000  0.000  0.000
  0.000  0.000  0.333  0.378  0.288
    occupations:
  0.446  0.000  0.000  0.000  0.000
  0.000  0.580  0.000  0.000  0.000
  0.000  0.000  0.580  0.000  0.000
  0.000  0.000  0.000  0.446  0.000
  0.000  0.000  0.000  0.000  0.580
atomic mag. moment =     2.250893
atom    4   Tr[ns(na)] (up, down, total) =   4.88222  2.63132  7.51354
   spin  1
    eigenvalues: 
  0.969  0.969  0.969  0.988  0.988
    eigenvectors:
  0.000  0.000  0.000  0.591  0.409
  0.333  0.056  0.611  0.000  0.000
  0.333  0.312  0.354  0.000  0.000
  0.000  0.000  0.000  0.409  0.591
  0.333  0.632  0.035  0.000  0.000
    occupations:
  0.988  0.000  0.000  0.000  0.000
  0.000  0.969  0.000  0.000  0.000
  0.000  0.000  0.969  0.000  0.000
  0.000  0.000  0.000  0.988  0.000
  0.000  0.000  0.000  0.000  0.969
   spin  2
    eigenvalues: 
  0.446  0.446  0.579  0.580  0.580
    eigenvectors:
  0.559  0.441  0.000  0.000  0.000
  0.000  0.000  0.333  0.056  0.611
  0.000  0.000  0.333  0.312  0.354
  0.441  0.559  0.000  0.000  0.000
  0.000  0.000  0.333  0.632  0.035
    occupations:
  0.446  0.000  0.000  0.000  0.000
  0.000  0.580  0.000  0.000  0.000
  0.000  0.000  0.580  0.000  0.000
  0.000  0.000  0.000  0.446  0.000
  0.000  0.000  0.000  0.000  0.580
atomic mag. moment =     2.250893
atom    5   Tr[ns(na)] (up, down, total) =   4.88146  2.62591  7.50737
   spin  1
    eigenvalues: 
  0.969  0.969  0.969  0.987  0.987
    eigenvectors:
  0.000  0.000  0.000  0.250  0.750
  0.076  0.924  0.000  0.000  0.000
  0.000  0.000  1.000  0.000  0.000
  0.000  0.000  0.000  0.750  0.250
  0.924  0.076  0.000  0.000  0.000
    occupations:
  0.987  0.000  0.000  0.000  0.000
  0.000  0.969  0.000  0.000  0.000
  0.000  0.000  0.969  0.000  0.000
  0.000  0.000  0.000  0.987  0.000
  0.000  0.000  0.000  0.000  0.969
   spin  2
    eigenvalues: 
  0.446  0.446  0.578  0.578  0.578
    eigenvectors:
  0.750  0.250  0.000  0.000  0.000
  0.000  0.000  0.000  0.067  0.933
  0.000  0.000  1.000  0.000  0.000
  0.250  0.750  0.000  0.000  0.000
  0.000  0.000  0.000  0.933  0.067
    occupations:
  0.446  0.000  0.000  0.000  0.000
  0.000  0.578  0.000  0.000  0.000
  0.000  0.000  0.578  0.000  0.000
  0.000  0.000  0.000  0.446  0.000
  0.000  0.000  0.000  0.000  0.578
atomic mag. moment =     2.255548
atom    6   Tr[ns(na)] (up, down, total) =   4.88146  2.62591  7.50737
   spin  1
    eigenvalues: 
  0.969  0.969  0.969  0.987  0.987
    eigenvectors:
  0.000  0.000  0.000  0.250  0.750
  0.000  0.000  1.000  0.000  0.000
  0.350  0.650  0.000  0.000  0.000
  0.000  0.000  0.000  0.750  0.250
  0.650  0.350  0.000  0.000  0.000
    occupations:
  0.987  0.000  0.000  0.000  0.000
  0.000  0.969  0.000  0.000  0.000
  0.000  0.000  0.969  0.000  0.000
  0.000  0.000  0.000  0.987  0.000
  0.000  0.000  0.000  0.000  0.969
   spin  2
    eigenvalues: 
  0.446  0.446  0.578  0.578  0.578
    eigenvectors:
  0.750  0.250  0.000  0.000  0.000
  0.000  0.000  1.000  0.000  0.000
  0.000  0.000  0.000  0.349  0.651
  0.250  0.750  0.000  0.000  0.000
  0.000  0.000  0.000  0.651  0.349
    occupations:
  0.446  0.000  0.000  0.000  0.000
  0.000  0.578  0.000  0.000  0.000
  0.000  0.000  0.578  0.000  0.000
  0.000  0.000  0.000  0.446  0.000
  0.000  0.000  0.000  0.000  0.578
atomic mag. moment =     2.255548
atom    7   Tr[ns(na)] (up, down, total) =   4.88146  2.62591  7.50737
   spin  1
    eigenvalues: 
  0.969  0.969  0.969  0.987  0.987
    eigenvectors:
  0.000  0.000  0.000  1.000  0.000
  0.230  0.770  0.000  0.000  0.000
  0.770  0.230  0.000  0.000  0.000
  0.000  0.000  0.000  0.000  1.000
  0.000  0.000  1.000  0.000  0.000
    occupations:
  0.987  0.000  0.000  0.000  0.000
  0.000  0.969  0.000  0.000  0.000
  0.000  0.000  0.969  0.000  0.000
  0.000  0.000  0.000  0.987  0.000
  0.000  0.000  0.000  0.000  0.969
   spin  2
    eigenvalues: 
  0.446  0.446  0.578  0.578  0.578
    eigenvectors:
  0.000  1.000  0.000  0.000  0.000
  0.000  0.000  0.000  0.225  0.775
  0.000  0.000  0.000  0.775  0.225
  1.000  0.000  0.000  0.000  0.000
  0.000  0.000  1.000  0.000  0.000
    occupations:
  0.446  0.000  0.000  0.000  0.000
  0.000  0.578  0.000  0.000  0.000
  0.000  0.000  0.578  0.000  0.000
  0.000  0.000  0.000  0.446  0.000
  0.000  0.000  0.000  0.000  0.578
atomic mag. moment =     2.255548
atom    8   Tr[ns(na)] (up, down, total) =   4.88222  2.63132  7.51354
   spin  1
    eigenvalues: 
  0.969  0.969  0.969  0.988  0.988
    eigenvectors:
  0.000  0.000  0.000  0.543  0.457
  0.333  0.660  0.006  0.000  0.000
  0.333  0.114  0.553  0.000  0.000
  0.000  0.000  0.000  0.457  0.543
  0.333  0.226  0.441  0.000  0.000
    occupations:
  0.988  0.000  0.000  0.000  0.000
  0.000  0.969  0.000  0.000  0.000
  0.000  0.000  0.969  0.000  0.000
  0.000  0.000  0.000  0.988  0.000
  0.000  0.000  0.000  0.000  0.969
   spin  2
    eigenvalues: 
  0.446  0.446  0.579  0.580  0.580
    eigenvectors:
  0.593  0.407  0.000  0.000  0.000
  0.000  0.000  0.333  0.660  0.007
  0.000  0.000  0.333  0.112  0.554
  0.407  0.593  0.000  0.000  0.000
  0.000  0.000  0.333  0.228  0.439
    occupations:
  0.446  0.000  0.000  0.000  0.000
  0.000  0.580  0.000  0.000  0.000
  0.000  0.000  0.580  0.000  0.000
  0.000  0.000  0.000  0.446  0.000
  0.000  0.000  0.000  0.000  0.580
atomic mag. moment =     2.250893
N of occupied +U levels =   60.115845
 --- exit write_ns ---
 --- in v_hubbard ---
Hubbard energy   -0.0553
 -------
 
     Magnetic moment per site:
     atom:    1    charge:    6.4836    magn:    2.5110    constr:    0.0000
     atom:    2    charge:    6.4770    magn:    2.5263    constr:    0.0000
     atom:    3    charge:    6.4770    magn:    2.5263    constr:    0.0000
     atom:    4    charge:    6.4770    magn:    2.5263    constr:    0.0000
     atom:    5    charge:    6.4773    magn:    2.5255    constr:    0.0000
     atom:    6    charge:    6.4773    magn:    2.5255    constr:    0.0000
     atom:    7    charge:    6.4773    magn:    2.5255    constr:    0.0000
     atom:    8    charge:    6.4770    magn:    2.5263    constr:    0.0000

     total cpu time spent up to now is       23.6 secs

     total energy              =    -446.46958563 Ry
     Harris-Foulkes estimate   =    -446.46959447 Ry
     estimated scf accuracy    <       0.00008330 Ry

     total magnetization       =    19.53 Bohr mag/cell
     absolute magnetization    =    20.97 Bohr mag/cell

     iteration #  4     ecut=    30.00 Ry     beta=0.30
     Davidson diagonalization with overlap
     ethr =  1.30E-07,  avg # of iterations =  2.6
 --- enter write_ns ---
 LDA+U parameters:
U( 1)     =  0.00000000
alpha( 1) = -0.10000000
U( 2)     =  0.00000000
alpha( 2) =  0.00000000
atom    1   Tr[ns(na)] (up, down, total) =   4.87849  2.66226  7.54075
   spin  1
    eigenvalues: 
  0.968  0.968  0.968  0.987  0.987
    eigenvectors:
  0.000  0.000  0.000  0.413  0.587
  0.070  0.387  0.543  0.000  0.000
  0.347  0.251  0.402  0.000  0.000
  0.000  0.000  0.000  0.587  0.413
  0.583  0.362  0.055  0.000  0.000
    occupations:
  0.987  0.000  0.000  0.000  0.000
  0.000  0.968  0.000  0.000  0.000
  0.000  0.000  0.968  0.000  0.000
  0.000  0.000  0.000  0.987  0.000
  0.000  0.000  0.000  0.000  0.968
   spin  2
    eigenvalues: 
  0.452  0.452  0.586  0.586  0.586
    eigenvectors:
  0.541  0.459  0.000  0.000  0.000
  0.000  0.000  0.073  0.416  0.511
  0.000  0.000  0.341  0.231  0.428
  0.459  0.541  0.000  0.000  0.000
  0.000  0.000  0.586  0.353  0.061
    occupations:
  0.452  0.000  0.000  0.000  0.000
  0.000  0.586  0.000  0.000  0.000
  0.000  0.000  0.586  0.000  0.000
  0.000  0.000  0.000  0.452  0.000
  0.000  0.000  0.000  0.000  0.586
atomic mag. moment =     2.216234
atom    2   Tr[ns(na)] (up, down, total) =   4.88176  2.62699  7.50874
   spin  1
    eigenvalues: 
  0.969  0.969  0.969  0.988  0.988
    eigenvectors:
  0.000  0.000  0.000  0.598  0.402
  0.333  0.381  0.285  0.000  0.000
  0.333  0.024  0.643  0.000  0.000
  0.000  0.000  0.000  0.402  0.598
  0.333  0.595  0.072  0.000  0.000
    occupations:
  0.988  0.000  0.000  0.000  0.000
  0.000  0.969  0.000  0.000  0.000
  0.000  0.000  0.969  0.000  0.000
  0.000  0.000  0.000  0.988  0.000
  0.000  0.000  0.000  0.000  0.969
   spin  2
    eigenvalues: 
  0.446  0.446  0.578  0.579  0.579
    eigenvectors:
  0.664  0.336  0.000  0.000  0.000
  0.000  0.000  0.333  0.413  0.253
  0.000  0.000  0.333  0.013  0.654
  0.336  0.664  0.000  0.000  0.000
  0.000  0.000  0.333  0.574  0.093
    occupations:
  0.446  0.000  0.000  0.000  0.000
  0.000  0.579  0.000  0.000  0.000
  0.000  0.000  0.579  0.000  0.000
  0.000  0.000  0.000  0.446  0.000
  0.000  0.000  0.000  0.000  0.579
atomic mag. moment =     2.254768
atom    3   Tr[ns(na)] (up, down, total) =   4.88176  2.62699  7.50874
   spin  1
    eigenvalues: 
  0.969  0.969  0.969  0.988  0.988
    eigenvectors:
  0.000  0.000  0.000  0.671  0.329
  0.333  0.011  0.656  0.000  0.000
  0.333  0.568  0.099  0.000  0.000
  0.000  0.000  0.000  0.329  0.671
  0.333  0.421  0.246  0.000  0.000
    occupations:
  0.988  0.000  0.000  0.000  0.000
  0.000  0.969  0.000  0.000  0.000
  0.000  0.000  0.969  0.000  0.000
  0.000  0.000  0.000  0.988  0.000
  0.000  0.000  0.000  0.000  0.969
   spin  2
    eigenvalues: 
  0.446  0.446  0.578  0.579  0.579
    eigenvectors:
  0.574  0.426  0.000  0.000  0.000
  0.000  0.000  0.333  0.025  0.642
  0.000  0.000  0.333  0.597  0.070
  0.426  0.574  0.000  0.000  0.000
  0.000  0.000  0.333  0.378  0.288
    occupations:
  0.446  0.000  0.000  0.000  0.000
  0.000  0.579  0.000  0.000  0.000
  0.000  0.000  0.579  0.000  0.000
  0.000  0.000  0.000  0.446  0.000
  0.000  0.000  0.000  0.000  0.579
atomic mag. moment =     2.254768
atom    4   Tr[ns(na)] (up, down, total) =   4.88176  2.62699  7.50874
   spin  1
    eigenvalues: 
  0.969  0.969  0.969  0.988  0.988
    eigenvectors:
  0.000  0.000  0.000  0.700  0.300
  0.333  0.052  0.614  0.000  0.000
  0.333  0.319  0.348  0.000  0.000
  0.000  0.000  0.000  0.300  0.700
  0.333  0.629  0.038  0.000  0.000
    occupations:
  0.988  0.000  0.000  0.000  0.000
  0.000  0.969  0.000  0.000  0.000
  0.000  0.000  0.969  0.000  0.000
  0.000  0.000  0.000  0.988  0.000
  0.000  0.000  0.000  0.000  0.969
   spin  2
    eigenvalues: 
  0.446  0.446  0.578  0.579  0.579
    eigenvectors:
  0.608  0.392  0.000  0.000  0.000
  0.000  0.000  0.333  0.054  0.613
  0.000  0.000  0.333  0.316  0.351
  0.392  0.608  0.000  0.000  0.000
  0.000  0.000  0.333  0.630  0.036
    occupations:
  0.446  0.000  0.000  0.000  0.000
  0.000  0.579  0.000  0.000  0.000
  0.000  0.000  0.579  0.000  0.000
  0.000  0.000  0.000  0.446  0.000
  0.000  0.000  0.000  0.000  0.579
atomic mag. moment =     2.254768
atom    5   Tr[ns(na)] (up, down, total) =   4.88221  2.63129  7.51350
   spin  1
    eigenvalues: 
  0.969  0.969  0.969  0.988  0.988
    eigenvectors:
  0.000  0.000  0.000  0.250  0.750
  0.076  0.924  0.000  0.000  0.000
  0.000  0.000  1.000  0.000  0.000
  0.000  0.000  0.000  0.750  0.250
  0.924  0.076  0.000  0.000  0.000
    occupations:
  0.988  0.000  0.000  0.000  0.000
  0.000  0.969  0.000  0.000  0.000
  0.000  0.000  0.969  0.000  0.000
  0.000  0.000  0.000  0.988  0.000
  0.000  0.000  0.000  0.000  0.969
   spin  2
    eigenvalues: 
  0.447  0.447  0.579  0.579  0.579
    eigenvectors:
  0.750  0.250  0.000  0.000  0.000
  0.000  0.000  0.000  0.076  0.924
  0.000  0.000  1.000  0.000  0.000
  0.250  0.750  0.000  0.000  0.000
  0.000  0.000  0.000  0.924  0.076
    occupations:
  0.447  0.000  0.000  0.000  0.000
  0.000  0.579  0.000  0.000  0.000
  0.000  0.000  0.579  0.000  0.000
  0.000  0.000  0.000  0.447  0.000
  0.000  0.000  0.000  0.000  0.579
atomic mag. moment =     2.250921
atom    6   Tr[ns(na)] (up, down, total) =   4.88221  2.63129  7.51350
   spin  1
    eigenvalues: 
  0.969  0.969  0.969  0.988  0.988
    eigenvectors:
  0.000  0.000  0.000  0.250  0.750
  0.000  0.000  1.000  0.000  0.000
  0.369  0.631  0.000  0.000  0.000
  0.000  0.000  0.000  0.750  0.250
  0.631  0.369  0.000  0.000  0.000
    occupations:
  0.988  0.000  0.000  0.000  0.000
  0.000  0.969  0.000  0.000  0.000
  0.000  0.000  0.969  0.000  0.000
  0.000  0.000  0.000  0.988  0.000
  0.000  0.000  0.000  0.000  0.969
   spin  2
    eigenvalues: 
  0.447  0.447  0.579  0.579  0.579
    eigenvectors:
  0.750  0.250  0.000  0.000  0.000
  0.000  0.000  1.000  0.000  0.000
  0.000  0.000  0.000  0.344  0.656
  0.250  0.750  0.000  0.000  0.000
  0.000  0.000  0.000  0.656  0.344
    occupations:
  0.447  0.000  0.000  0.000  0.000
  0.000  0.579  0.000  0.000  0.000
  0.000  0.000  0.579  0.000  0.000
  0.000  0.000  0.000  0.447  0.000
  0.000  0.000  0.000  0.000  0.579
atomic mag. moment =     2.250921
atom    7   Tr[ns(na)] (up, down, total) =   4.88221  2.63129  7.51350
   spin  1
    eigenvalues: 
  0.969  0.969  0.969  0.988  0.988
    eigenvectors:
  0.000  0.000  0.000  1.000  0.000
  0.256  0.744  0.000  0.000  0.000
  0.744  0.256  0.000  0.000  0.000
  0.000  0.000  0.000  0.000  1.000
  0.000  0.000  1.000  0.000  0.000
    occupations:
  0.988  0.000  0.000  0.000  0.000
  0.000  0.969  0.000  0.000  0.000
  0.000  0.000  0.969  0.000  0.000
  0.000  0.000  0.000  0.988  0.000
  0.000  0.000  0.000  0.000  0.969
   spin  2
    eigenvalues: 
  0.447  0.447  0.579  0.579  0.579
    eigenvectors:
  0.000  1.000  0.000  0.000  0.000
  0.000  0.000  0.000  0.221  0.779
  0.000  0.000  0.000  0.779  0.221
  1.000  0.000  0.000  0.000  0.000
  0.000  0.000  1.000  0.000  0.000
    occupations:
  0.447  0.000  0.000  0.000  0.000
  0.000  0.579  0.000  0.000  0.000
  0.000  0.000  0.579  0.000  0.000
  0.000  0.000  0.000  0.447  0.000
  0.000  0.000  0.000  0.000  0.579
atomic mag. moment =     2.250921
atom    8   Tr[ns(na)] (up, down, total) =   4.88176  2.62699  7.50874
   spin  1
    eigenvalues: 
  0.969  0.969  0.969  0.988  0.988
    eigenvectors:
  0.000  0.000  0.000  0.682  0.318
  0.333  0.660  0.007  0.000  0.000
  0.333  0.113  0.554  0.000  0.000
  0.000  0.000  0.000  0.318  0.682
  0.333  0.227  0.439  0.000  0.000
    occupations:
  0.988  0.000  0.000  0.000  0.000
  0.000  0.969  0.000  0.000  0.000
  0.000  0.000  0.969  0.000  0.000
  0.000  0.000  0.000  0.988  0.000
  0.000  0.000  0.000  0.000  0.969
   spin  2
    eigenvalues: 
  0.446  0.446  0.578  0.579  0.579
    eigenvectors:
  0.722  0.278  0.000  0.000  0.000
  0.000  0.000  0.333  0.662  0.005
  0.000  0.000  0.333  0.119  0.548
  0.278  0.722  0.000  0.000  0.000
  0.000  0.000  0.333  0.220  0.447
    occupations:
  0.446  0.000  0.000  0.000  0.000
  0.000  0.579  0.000  0.000  0.000
  0.000  0.000  0.579  0.000  0.000
  0.000  0.000  0.000  0.446  0.000
  0.000  0.000  0.000  0.000  0.579
atomic mag. moment =     2.254768
N of occupied +U levels =   60.116218
 --- exit write_ns ---
 --- in v_hubbard ---
Hubbard energy   -0.0554
 -------
 
     Magnetic moment per site:
     atom:    1    charge:    6.4845    magn:    2.5014    constr:    0.0000
     atom:    2    charge:    6.4767    magn:    2.5271    constr:    0.0000
     atom:    3    charge:    6.4767    magn:    2.5271    constr:    0.0000
     atom:    4    charge:    6.4767    magn:    2.5271    constr:    0.0000
     atom:    5    charge:    6.4773    magn:    2.5260    constr:    0.0000
     atom:    6    charge:    6.4773    magn:    2.5260    constr:    0.0000
     atom:    7    charge:    6.4773    magn:    2.5260    constr:    0.0000
     atom:    8    charge:    6.4767    magn:    2.5271    constr:    0.0000

     total cpu time spent up to now is       28.3 secs

     total energy              =    -446.46961958 Ry
     Harris-Foulkes estimate   =    -446.46961578 Ry
     estimated scf accuracy    <       0.00003965 Ry

     total magnetization       =    19.53 Bohr mag/cell
     absolute magnetization    =    20.97 Bohr mag/cell

     iteration #  5     ecut=    30.00 Ry     beta=0.30
     Davidson diagonalization with overlap
     ethr =  6.19E-08,  avg # of iterations =  1.0
 --- enter write_ns ---
 LDA+U parameters:
U( 1)     =  0.00000000
alpha( 1) = -0.10000000
U( 2)     =  0.00000000
alpha( 2) =  0.00000000
atom    1   Tr[ns(na)] (up, down, total) =   4.87707  2.66271  7.53978
   spin  1
    eigenvalues: 
  0.968  0.968  0.968  0.987  0.987
    eigenvectors:
  0.000  0.000  0.000  0.671  0.329
  0.078  0.582  0.340  0.000  0.000
  0.345  0.119  0.536  0.000  0.000
  0.000  0.000  0.000  0.329  0.671
  0.577  0.300  0.124  0.000  0.000
    occupations:
  0.987  0.000  0.000  0.000  0.000
  0.000  0.968  0.000  0.000  0.000
  0.000  0.000  0.968  0.000  0.000
  0.000  0.000  0.000  0.987  0.000
  0.000  0.000  0.000  0.000  0.968
   spin  2
    eigenvalues: 
  0.452  0.452  0.586  0.586  0.586
    eigenvectors:
  0.694  0.306  0.000  0.000  0.000
  0.000  0.000  0.074  0.390  0.537
  0.000  0.000  0.364  0.233  0.403
  0.306  0.694  0.000  0.000  0.000
  0.000  0.000  0.563  0.377  0.060
    occupations:
  0.452  0.000  0.000  0.000  0.000
  0.000  0.586  0.000  0.000  0.000
  0.000  0.000  0.586  0.000  0.000
  0.000  0.000  0.000  0.452  0.000
  0.000  0.000  0.000  0.000  0.586
atomic mag. moment =     2.214366
atom    2   Tr[ns(na)] (up, down, total) =   4.88197  2.62819  7.51017
   spin  1
    eigenvalues: 
  0.969  0.969  0.969  0.988  0.988
    eigenvectors:
  0.000  0.000  0.000  0.462  0.538
  0.333  0.424  0.242  0.000  0.000
  0.333  0.010  0.657  0.000  0.000
  0.000  0.000  0.000  0.538  0.462
  0.333  0.566  0.101  0.000  0.000
    occupations:
  0.988  0.000  0.000  0.000  0.000
  0.000  0.969  0.000  0.000  0.000
  0.000  0.000  0.969  0.000  0.000
  0.000  0.000  0.000  0.988  0.000
  0.000  0.000  0.000  0.000  0.969
   spin  2
    eigenvalues: 
  0.446  0.446  0.578  0.579  0.579
    eigenvectors:
  0.590  0.410  0.000  0.000  0.000
  0.000  0.000  0.333  0.481  0.185
  0.000  0.000  0.333  0.001  0.666
  0.410  0.590  0.000  0.000  0.000
  0.000  0.000  0.333  0.518  0.149
    occupations:
  0.446  0.000  0.000  0.000  0.000
  0.000  0.579  0.000  0.000  0.000
  0.000  0.000  0.579  0.000  0.000
  0.000  0.000  0.000  0.446  0.000
  0.000  0.000  0.000  0.000  0.579
atomic mag. moment =     2.253782
atom    3   Tr[ns(na)] (up, down, total) =   4.88197  2.62819  7.51017
   spin  1
    eigenvalues: 
  0.969  0.969  0.969  0.988  0.988
    eigenvectors:
[...]
    11.7074  11.7074  11.8259  11.8259  11.8259  11.8303  11.8461  11.8461
    12.7284  12.7284  12.7284  12.9757  12.9757  12.9757  12.9883  12.9883
    12.9883  13.5662  13.5662  13.5662  13.5832  13.5832  13.5832  19.8709
    19.8709  19.8908

     occupation numbers 
     1.0000   1.0000   1.0000   1.0000   1.0000   1.0000   1.0000   1.0000
     1.0000   1.0000   1.0000   1.0000   1.0000   1.0000   1.0000   1.0000
     1.0000   1.0000   1.0000   1.0000   1.0000   1.0000   1.0000   1.0000
     1.0000   1.0000   1.0000   1.0000   1.0000   1.0000   1.0000   1.0000
     0.8928   0.8928   0.8928  -0.0351  -0.0351  -0.0351  -0.0329  -0.0329
    -0.0329   0.0000   0.0000   0.0000   0.0000   0.0000   0.0000   0.0000
     0.0000   0.0000

          k = 0.0000-0.2500 0.2500 (  1773 PWs)   bands (ev):

     5.3645   8.0009   8.3563   8.3606   8.3621   8.3672   8.3887   8.4019
     8.4379   9.5404   9.5404   9.5410   9.5413   9.5940   9.8281  10.3027
    10.4380  10.5962  10.7792  11.0781  11.0830  11.0849  11.0869  11.4540
    11.4715  11.5331  11.6627  11.6655  11.6676  11.6681  11.6793  11.7967
    11.8629  12.0879  12.2019  12.2056  12.2070  12.2178  12.2594  12.5506
    12.7651  12.9443  14.6076  14.6114  14.6137  14.6190  15.2752  19.9901
    20.8492  20.9759

     occupation numbers 
     1.0000   1.0000   1.0000   1.0000   1.0000   1.0000   1.0000   1.0000
     1.0000   1.0000   1.0000   1.0000   1.0000   1.0000   1.0000   1.0000
     1.0000   1.0000   1.0000   1.0000   1.0000   1.0000   1.0000   1.0000
     1.0000   1.0000   1.0000   1.0000   1.0000   1.0000   1.0000   1.0000
     1.0000   1.0000   1.0000   1.0000   1.0000   1.0000   1.0000   1.0126
     0.7222  -0.0291   0.0000   0.0000   0.0000   0.0000   0.0000   0.0000
     0.0000   0.0000

          k = 0.0000 0.5000-0.5000 (  1766 PWs)   bands (ev):

     6.9404   6.9420   8.7428   8.7499   8.8983   8.9123   8.9124   8.9131
     9.2611   9.2684   9.5542   9.5555   9.5571   9.5599   9.9381   9.9417
    10.1837  10.1846  10.1868  10.1877  10.3922  10.3972  10.8359  10.8407
    11.4231  11.4293  11.4914  11.4986  11.5957  11.5979  11.5994  11.6061
    11.6071  11.6182  11.7206  11.7298  12.0161  12.0162  12.0184  12.0370
    12.8482  12.8608  15.0273  15.0299  15.0386  15.0423  17.9582  17.9622
    20.4734  20.4860

     occupation numbers 
     1.0000   1.0000   1.0000   1.0000   1.0000   1.0000   1.0000   1.0000
     1.0000   1.0000   1.0000   1.0000   1.0000   1.0000   1.0000   1.0000
     1.0000   1.0000   1.0000   1.0000   1.0000   1.0000   1.0000   1.0000
     1.0000   1.0000   1.0000   1.0000   1.0000   1.0000   1.0000   1.0000
     1.0000   1.0000   1.0000   1.0000   1.0000   1.0000   1.0000   1.0000
     0.2319   0.1709   0.0000   0.0000   0.0000   0.0000   0.0000   0.0000
     0.0000   0.0000

          k =-0.2500 0.7500-0.5000 (  1758 PWs)   bands (ev):

     6.4966   8.0234   8.0343   8.8421   8.8670   8.8724   8.8726   8.8781
     8.9956   9.4909   9.5906   9.6953   9.6969   9.7669   9.7675  10.1388
    10.1469  10.1520  10.1531  10.1842  10.2314  10.2480  10.2523  10.9665
    11.3938  11.4522  11.4812  11.4841  11.5150  11.5170  11.7328  11.7573
    11.7695  11.8100  11.8788  11.8816  12.0055  12.0755  12.5156  12.5195
    12.5765  12.7071  12.7111  14.7147  16.1386  16.1476  17.6754  18.3342
    20.2224  21.5633

     occupation numbers 
     1.0000   1.0000   1.0000   1.0000   1.0000   1.0000   1.0000   1.0000
     1.0000   1.0000   1.0000   1.0000   1.0000   1.0000   1.0000   1.0000
     1.0000   1.0000   1.0000   1.0000   1.0000   1.0000   1.0000   1.0000
     1.0000   1.0000   1.0000   1.0000   1.0000   1.0000   1.0000   1.0000
     1.0000   1.0000   1.0000   1.0000   1.0000   1.0000   1.0056   1.0062
     1.0203   0.9598   0.9493   0.0000   0.0000   0.0000   0.0000   0.0000
     0.0000   0.0000

          k = 0.0000 0.0000 0.5000 (  1773 PWs)   bands (ev):

     5.9559   8.3673   8.3737   8.3737   8.3866   8.6090   8.6607   8.7928
     8.8001   9.3989   9.3989   9.9512   9.9522   9.9522   9.9533  10.3212
    10.3213  10.3213  10.3272  10.4899  10.4899  10.7793  10.8488  10.8488
    11.1484  11.4434  11.4451  11.4451  11.4483  11.7868  11.7952  11.8422
    11.8565  11.8663  11.9415  11.9415  12.3839  12.4923  12.4992  12.4992
    12.5017  13.3091  13.3091  13.3180  13.3212  16.8341  16.8341  17.6193
    20.1646  20.1663

     occupation numbers 
     1.0000   1.0000   1.0000   1.0000   1.0000   1.0000   1.0000   1.0000
     1.0000   1.0000   1.0000   1.0000   1.0000   1.0000   1.0000   1.0000
     1.0000   1.0000   1.0000   1.0000   1.0000   1.0000   1.0000   1.0000
     1.0000   1.0000   1.0000   1.0000   1.0000   1.0000   1.0000   1.0000
     1.0000   1.0000   1.0000   1.0000   1.0001   1.0029   1.0036   1.0036
     1.0038   0.0000   0.0000   0.0000   0.0000   0.0000   0.0000   0.0000
     0.0000   0.0000

          k = 0.0000 0.7500-0.2500 (  1780 PWs)   bands (ev):

     7.4235   7.4308   8.5877   8.5892   8.8601   8.8607   9.2255   9.2295
     9.3034   9.3075   9.5876   9.5910   9.7142   9.7162  10.0475  10.0479
    10.2538  10.2580  10.2934  10.2966  10.4197  10.4209  10.9035  10.9083
    11.0690  11.0733  11.1809  11.1836  11.3120  11.3180  11.5344  11.5426
    11.8171  11.8276  11.8643  11.8770  12.0779  12.0861  12.1224  12.1283
    12.3752  12.3855  13.3365  13.3478  15.1080  15.1106  17.7630  17.7640
    21.9267  21.9295

     occupation numbers 
     1.0000   1.0000   1.0000   1.0000   1.0000   1.0000   1.0000   1.0000
     1.0000   1.0000   1.0000   1.0000   1.0000   1.0000   1.0000   1.0000
     1.0000   1.0000   1.0000   1.0000   1.0000   1.0000   1.0000   1.0000
     1.0000   1.0000   1.0000   1.0000   1.0000   1.0000   1.0000   1.0000
     1.0000   1.0000   1.0000   1.0000   1.0000   1.0000   1.0000   1.0000
     1.0000   1.0001   0.0000   0.0000   0.0000   0.0000   0.0000   0.0000
     0.0000   0.0000

          k = 0.5000-0.5000 0.5000 (  1772 PWs)   bands (ev):

     7.9131   7.9131   7.9131   7.9356   9.3849   9.3849   9.3918   9.3918
     9.3918   9.3930   9.3930   9.3930   9.7647   9.7647   9.7653   9.7653
     9.7653   9.7673   9.7673   9.7673   9.7900   9.7900   9.7900   9.7904
    11.6659  11.6659  11.6659  11.6671  11.6671  11.6671  11.6805  11.6805
    12.1128  12.1128  12.1128  12.1178  12.1178  12.1232  12.1232  12.1232
    12.7313  12.7410  12.7410  12.7410  19.8037  19.8155  19.8160  19.8232
    19.8235  19.8235

     occupation numbers 
     1.0000   1.0000   1.0000   1.0000   1.0000   1.0000   1.0000   1.0000
     1.0000   1.0000   1.0000   1.0000   1.0000   1.0000   1.0000   1.0000
     1.0000   1.0000   1.0000   1.0000   1.0000   1.0000   1.0000   1.0000
     1.0000   1.0000   1.0000   1.0000   1.0000   1.0000   1.0000   1.0000
     1.0000   1.0000   1.0000   1.0000   1.0000   1.0000   1.0000   1.0000
     0.8821   0.8420   0.8420   0.8420   0.0000   0.0000   0.0000   0.0000
     0.0000   0.0000

          k = 0.0000 0.0000-1.0000 (  1830 PWs)   bands (ev):

     8.3999   8.3999   8.4213   8.4213   8.4213   8.4362   9.6468   9.6468
     9.6468   9.6508   9.6508   9.6508   9.8937   9.8937   9.8937   9.8963
     9.8980   9.8980  10.8889  10.8889  10.8889  10.8899  10.8899  10.8899
    10.8915  10.8915  10.8915  10.9005  10.9005  10.9005  11.5638  11.5638
    11.5638  11.5752  11.5752  11.5752  11.8589  11.8589  11.8729  11.8729
    12.9542  12.9542  12.9542  12.9653  12.9775  12.9775  21.3173  21.3184
    21.3217  21.3225

     occupation numbers 
     1.0000   1.0000   1.0000   1.0000   1.0000   1.0000   1.0000   1.0000
     1.0000   1.0000   1.0000   1.0000   1.0000   1.0000   1.0000   1.0000
     1.0000   1.0000   1.0000   1.0000   1.0000   1.0000   1.0000   1.0000
     1.0000   1.0000   1.0000   1.0000   1.0000   1.0000   1.0000   1.0000
     1.0000   1.0000   1.0000   1.0000   1.0000   1.0000   1.0000   1.0000
    -0.0334  -0.0334  -0.0334  -0.0353  -0.0349  -0.0349   0.0000   0.0000
     0.0000   0.0000

 ------ SPIN DOWN ----------


          k = 0.0000 0.0000 0.0000 (  1745 PWs)   bands (ev):

     4.8037   9.5834   9.5834   9.5834   9.5881   9.5881   9.6072  10.2299
    10.2299  11.6612  11.6612  11.6612  11.6737  11.6737  11.6737  12.9314
    12.9314  12.9314  13.5420  13.5420  13.5420  13.5573  13.5573  13.5573
    14.7135  14.7135  14.7181  14.7181  14.7181  14.7202  14.8303  14.8303
    15.0818  15.0818  15.0886  15.0886  15.0886  15.0889  15.5550  15.5550
    15.5550  15.8487  15.8487  15.8487  15.8519  15.8519  15.8519  21.4976
    21.4987  21.5008

     occupation numbers 
     1.0000   1.0000   1.0000   1.0000   1.0000   1.0000   1.0000   1.0000
     1.0000   1.0000   1.0000   1.0000   1.0000   1.0000   1.0000  -0.0190
    -0.0190  -0.0190   0.0000   0.0000   0.0000   0.0000   0.0000   0.0000
     0.0000   0.0000   0.0000   0.0000   0.0000   0.0000   0.0000   0.0000
     0.0000   0.0000   0.0000   0.0000   0.0000   0.0000   0.0000   0.0000
     0.0000   0.0000   0.0000   0.0000   0.0000   0.0000   0.0000   0.0000
     0.0000   0.0000

          k = 0.0000-0.2500 0.2500 (  1773 PWs)   bands (ev):

     5.4305   9.0052   9.8105   9.8200   9.8225   9.8293  10.0226  10.4731
    10.4888  11.7196  11.7228  11.7240  11.7300  11.8389  12.0783  12.4104
    12.5861  12.5885  12.5895  12.5947  12.6773  12.7309  12.8712  13.2911
    14.2968  14.6404  14.6440  14.6484  14.6500  14.6506  14.6547  14.7110
    14.8476  14.8832  15.0272  15.1777  15.1828  15.1831  15.1837  15.3328
    15.5976  15.8062  16.5362  16.5367  16.5377  16.5379  16.6427  21.4951
    21.5215  22.2841

     occupation numbers 
     1.0000   1.0000   1.0000   1.0000   1.0000   1.0000   1.0000   1.0000
     1.0000   1.0000   1.0000   1.0000   1.0000   1.0000   1.0000   1.0002
     1.0236   1.0244   1.0247   1.0265   1.0145   0.8836   0.1266   0.0000
     0.0000   0.0000   0.0000   0.0000   0.0000   0.0000   0.0000   0.0000
     0.0000   0.0000   0.0000   0.0000   0.0000   0.0000   0.0000   0.0000
     0.0000   0.0000   0.0000   0.0000   0.0000   0.0000   0.0000   0.0000
     0.0000   0.0000

          k = 0.0000 0.5000-0.5000 (  1766 PWs)   bands (ev):

     7.1253   7.1264  10.1536  10.1769  10.1813  10.1836  10.6992  10.7160
    11.1978  11.2173  11.5690  11.5788  11.5896  11.5913  12.0081  12.0246
    12.0291  12.0318  12.2649  12.2761  12.5650  12.5751  13.2111  13.2217
    13.9305  13.9395  14.2320  14.2394  14.5090  14.5149  14.5566  14.5617
    14.5654  14.5660  14.9137  14.9193  15.1008  15.1062  15.1080  15.1081
    15.6993  15.7040  17.0488  17.0502  17.0505  17.0523  19.0361  19.0401
    21.6936  21.7019

     occupation numbers 
     1.0000   1.0000   1.0000   1.0000   1.0000   1.0000   1.0000   1.0000
     1.0000   1.0000   1.0000   1.0000   1.0000   1.0000   1.0000   1.0000
     1.0000   1.0000   1.0000   1.0000   1.0167   1.0199  -0.0001  -0.0001
     0.0000   0.0000   0.0000   0.0000   0.0000   0.0000   0.0000   0.0000
     0.0000   0.0000   0.0000   0.0000   0.0000   0.0000   0.0000   0.0000
     0.0000   0.0000   0.0000   0.0000   0.0000   0.0000   0.0000   0.0000
     0.0000   0.0000

          k =-0.2500 0.7500-0.5000 (  1758 PWs)   bands (ev):

     6.6045   8.5270   8.5385   9.9639  10.5198  10.5323  10.7555  10.7636
    10.9694  11.5979  11.6119  11.6394  11.6504  11.7886  11.9217  12.0056
    12.0109  12.2123  12.2200  12.3476  12.3497  12.4842  12.5403  13.2971
    14.0130  14.2384  14.2389  14.4196  14.4483  14.4505  14.6146  14.7453
    14.8501  14.9525  15.0171  15.0192  15.0371  15.0800  15.2818  15.2822
    15.3234  15.3268  15.3440  16.8379  17.7348  17.7395  19.0281  19.4687
    21.5535  22.7231

     occupation numbers 
     1.0000   1.0000   1.0000   1.0000   1.0000   1.0000   1.0000   1.0000
     1.0000   1.0000   1.0000   1.0000   1.0000   1.0000   1.0000   1.0000
     1.0000   1.0000   1.0000   1.0000   1.0000   1.0023   1.0101   0.0000
     0.0000   0.0000   0.0000   0.0000   0.0000   0.0000   0.0000   0.0000
     0.0000   0.0000   0.0000   0.0000   0.0000   0.0000   0.0000   0.0000
     0.0000   0.0000   0.0000   0.0000   0.0000   0.0000   0.0000   0.0000
     0.0000   0.0000

          k = 0.0000 0.0000 0.5000 (  1773 PWs)   bands (ev):

     6.0345   9.4400   9.4505   9.4505   9.4661  10.4214  10.4345  10.4537
    10.8536  11.4664  11.4664  12.2138  12.2235  12.2235  12.2235  12.2243
    12.2331  12.2331  12.2374  12.2720  12.2720  12.9111  12.9111  13.2978
    14.1209  14.2096  14.2130  14.2130  14.2134  14.4897  14.4897  14.9048
    14.9081  15.0771  15.1072  15.1117  15.1522  15.2673  15.2692  15.2692
    15.2712  15.6906  15.6908  15.6908  15.6917  18.2438  18.2438  18.6617
    21.5727  21.5746

     occupation numbers 
     1.0000   1.0000   1.0000   1.0000   1.0000   1.0000   1.0000   1.0000
     1.0000   1.0000   1.0000   1.0000   1.0000   1.0000   1.0000   1.0000
     1.0000   1.0000   1.0000   1.0000   1.0000   0.0101   0.0101   0.0000
     0.0000   0.0000   0.0000   0.0000   0.0000   0.0000   0.0000   0.0000
     0.0000   0.0000   0.0000   0.0000   0.0000   0.0000   0.0000   0.0000
     0.0000   0.0000   0.0000   0.0000   0.0000   0.0000   0.0000   0.0000
     0.0000   0.0000

          k = 0.0000 0.7500-0.2500 (  1780 PWs)   bands (ev):

     7.6527   7.6591   9.3208   9.3248  10.2525  10.2583  11.0011  11.0173
    11.4255  11.4390  11.5374  11.5388  11.6330  11.6478  11.9988  12.0018
    12.6044  12.6152  12.6295  12.6401  12.6604  12.6608  13.2902  13.2998
    13.8106  13.8192  13.8236  13.8281  13.8430  13.8437  14.1472  14.1541
    14.8966  14.8978  15.0002  15.0042  15.0970  15.1011  15.1277  15.1328
    15.2576  15.2596  15.8220  15.8234  16.8561  16.8588  19.2274  19.2280
    22.9360  22.9385

     occupation numbers 
     1.0000   1.0000   1.0000   1.0000   1.0000   1.0000   1.0000   1.0000
     1.0000   1.0000   1.0000   1.0000   1.0000   1.0000   1.0000   1.0000
     1.0296   1.0326   1.0352   1.0353   1.0290   1.0288   0.0000   0.0000
     0.0000   0.0000   0.0000   0.0000   0.0000   0.0000   0.0000   0.0000
     0.0000   0.0000   0.0000   0.0000   0.0000   0.0000   0.0000   0.0000
     0.0000   0.0000   0.0000   0.0000   0.0000   0.0000   0.0000   0.0000
     0.0000   0.0000

          k = 0.5000-0.5000 0.5000 (  1772 PWs)   bands (ev):

     8.1632   8.1632   8.1632   8.1834  11.3267  11.3267  11.3490  11.3490
    11.3490  11.3493  11.3493  11.3493  11.8534  11.8534  11.8534  11.8646
    11.9739  11.9739  11.9739  11.9858  11.9858  11.9881  11.9881  11.9881
    14.8010  14.8010  14.8114  14.8114  14.8114  14.8115  14.8115  14.8115
    14.8794  14.8794  14.8794  14.8839  14.8839  14.8854  14.8854  14.8854
    15.2584  15.2584  15.2584  15.2602  20.9922  21.0006  21.0009  21.0045
    21.0054  21.0055

     occupation numbers 
     1.0000   1.0000   1.0000   1.0000   1.0000   1.0000   1.0000   1.0000
     1.0000   1.0000   1.0000   1.0000   1.0000   1.0000   1.0000   1.0000
     1.0000   1.0000   1.0000   1.0000   1.0000   1.0000   1.0000   1.0000
     0.0000   0.0000   0.0000   0.0000   0.0000   0.0000   0.0000   0.0000
     0.0000   0.0000   0.0000   0.0000   0.0000   0.0000   0.0000   0.0000
     0.0000   0.0000   0.0000   0.0000   0.0000   0.0000   0.0000   0.0000
     0.0000   0.0000

          k = 0.0000 0.0000-1.0000 (  1830 PWs)   bands (ev):

     8.9593   8.9593   8.9839   8.9839   8.9839   8.9973  11.4092  11.4092
    11.4092  11.4265  11.4265  11.4265  12.4278  12.4278  12.4446  12.4464
    12.4464  12.4464  13.2624  13.2624  13.2624  13.2797  13.2797  13.2797
    13.2807  13.2807  13.2807  13.2808  13.2808  13.2808  14.2038  14.2038
    14.2038  14.2084  14.2085  14.2085  15.1309  15.1309  15.1353  15.1353
    15.6707  15.6707  15.6707  15.6716  15.6716  15.6740  22.3392  22.3433
    22.3433  22.3433

     occupation numbers 
     1.0000   1.0000   1.0000   1.0000   1.0000   1.0000   1.0000   1.0000
     1.0000   1.0000   1.0000   1.0000   1.0003   1.0003   1.0006   1.0007
     1.0007   1.0007   0.0000   0.0000   0.0000   0.0000   0.0000   0.0000
     0.0000   0.0000   0.0000   0.0000   0.0000   0.0000   0.0000   0.0000
     0.0000   0.0000   0.0000   0.0000   0.0000   0.0000   0.0000   0.0000
     0.0000   0.0000   0.0000   0.0000   0.0000   0.0000   0.0000   0.0000
     0.0000   0.0000

     the Fermi energy is    12.8023 ev

!    total energy              =    -446.46962914 Ry
     Harris-Foulkes estimate   =    -446.46962913 Ry
     estimated scf accuracy    <          8.1E-11 Ry

     The total energy is the sum of the following terms:

     one-electron contribution =      55.34155552 Ry
     hartree contribution      =      53.60588460 Ry
     xc contribution           =    -211.58284300 Ry
     ewald contribution        =    -343.77998637 Ry
     Hubbard energy            =      -0.05543079 Ry
     smearing contrib. (-TS)   =       0.00119091 Ry

     total magnetization       =    19.52 Bohr mag/cell
     absolute magnetization    =    20.96 Bohr mag/cell

     convergence has been achieved in  12 iterations

     Writing output data file fe.save
 
     init_run     :      1.98s CPU      2.00s WALL (       1 calls)
     electrons    :     61.32s CPU     61.75s WALL (       1 calls)

     Called by init_run:
     wfcinit      :      0.13s CPU      0.13s WALL (       1 calls)
     potinit      :      0.28s CPU      0.28s WALL (       1 calls)

     Called by electrons:
     c_bands      :     40.61s CPU     40.85s WALL (      12 calls)
     sum_band     :     13.72s CPU     13.79s WALL (      12 calls)
     v_of_rho     :      1.70s CPU      1.76s WALL (      13 calls)
     v_h          :      0.03s CPU      0.05s WALL (      13 calls)
     v_xc         :      1.68s CPU      1.71s WALL (      13 calls)
     newd         :      5.51s CPU      5.56s WALL (      13 calls)
     mix_rho      :      0.16s CPU      0.17s WALL (      12 calls)

     Called by c_bands:
     init_us_2    :      0.24s CPU      0.24s WALL (     400 calls)
     cegterg      :     38.49s CPU     38.72s WALL (     192 calls)

     Called by sum_band:
     sum_band:bec :      0.10s CPU      0.10s WALL (     192 calls)
     addusdens    :      7.98s CPU      8.02s WALL (      12 calls)

     Called by *egterg:
     h_psi        :     24.04s CPU     24.15s WALL (     777 calls)
     s_psi        :      1.90s CPU      1.86s WALL (     793 calls)
     g_psi        :      0.20s CPU      0.19s WALL (     585 calls)
     cdiaghg      :      7.30s CPU      7.32s WALL (     761 calls)
     cegterg:over :      1.93s CPU      1.97s WALL (     585 calls)
     cegterg:upda :      1.13s CPU      1.16s WALL (     585 calls)
     cegterg:last :      0.86s CPU      0.85s WALL (     213 calls)

     Called by h_psi:
     h_psi:vloc   :     18.44s CPU     18.56s WALL (     777 calls)
     h_psi:vnl    :      3.89s CPU      3.88s WALL (     777 calls)
     add_vuspsi   :      1.89s CPU      1.87s WALL (     777 calls)
     vhpsi        :      1.63s CPU      1.66s WALL (     777 calls)

     General routines
     calbec       :      3.58s CPU      3.63s WALL (    1954 calls)
     fft          :      1.01s CPU      1.05s WALL (     391 calls)
     ffts         :      0.02s CPU      0.03s WALL (      50 calls)
     fftw         :     18.25s CPU     18.25s WALL (   58156 calls)
     interpolate  :      0.17s CPU      0.17s WALL (      50 calls)
     davcio       :      0.01s CPU      0.01s WALL (      48 calls)
 
     Parallel routines
     fft_scatter  :      4.14s CPU      4.13s WALL (   58597 calls)
     Hubbard U routines
     new_ns       :      0.32s CPU      0.32s WALL (      12 calls)
     vhpsi        :      1.63s CPU      1.66s WALL (     777 calls)
 
     PWSCF        :  1m 3.52s CPU     1m 4.02s WALL

 
   This run was terminated on:  17:45:16  30Jun2014            

=------------------------------------------------------------------------------=
   JOB DONE.
=------------------------------------------------------------------------------=
