
     Program PWSCF v.5.1 starts on 30Jun2014 at 17:43:12 

     This program is part of the open-source Quantum ESPRESSO suite
     for quantum simulation of materials; please cite
         "P. Giannozzi et al., J. Phys.:Condens. Matter 21 395502 (2009);
          URL http://www.quantum-espresso.org", 
     in publications or presentations arising from this work. More details at
     http://www.quantum-espresso.org/quote

     Parallel version (MPI), running on     4 processors
     R & G space division:  proc/nbgrp/npool/nimage =       4
     Waiting for input...
     Reading input from standard input

     Current dimensions of program PWSCF are:
     Max number of different atomic species (ntypx) = 10
     Max number of k-points (npk) =  40000
     Max angular momentum in pseudopotentials (lmaxx) =  3
               file Fe.pbe-nd-rrkjus.UPF: wavefunction(s)  4S renormalized
               file Fe.pbe-nd-rrkjus.UPF: wavefunction(s)  4S renormalized

     Subspace diagonalization in iterative solution of the eigenvalue problem:
     a serial algorithm will be used

 
     Parallelization info
     --------------------
     sticks:   dense  smooth     PW     G-vecs:    dense   smooth      PW
     Min         595     199     60                18379     3540     586
     Max         596     200     61                18382     3545     587
     Sum        2383     797    241                73525    14171    2347
 
     Generating pointlists ...
     new r_m :   0.1786 (alat units)  1.9362 (a.u.) for type    1
     new r_m :   0.1786 (alat units)  1.9362 (a.u.) for type    2


     bravais-lattice index     =            3
     lattice parameter (alat)  =      10.8400  a.u.
     unit-cell volume          =     636.8804 (a.u.)^3
     number of atoms/cell      =            8
     number of atomic types    =            2
     number of electrons       =        64.00
     number of Kohn-Sham states=           50
     kinetic-energy cutoff     =      30.0000  Ry
     charge density cutoff     =     360.0000  Ry
     convergence threshold     =      1.0E-09
     mixing beta               =       0.3000
     number of iterations used =            8  plain     mixing
     Exchange-correlation      =  SLA  PW   PBE  PBE ( 1  4  3  4 0)

     celldm(1)=  10.840000  celldm(2)=   0.000000  celldm(3)=   0.000000
     celldm(4)=   0.000000  celldm(5)=   0.000000  celldm(6)=   0.000000

     crystal axes: (cart. coord. in units of alat)
               a(1) = (   0.500000   0.500000   0.500000 )  
               a(2) = (  -0.500000   0.500000   0.500000 )  
               a(3) = (  -0.500000  -0.500000   0.500000 )  

     reciprocal axes: (cart. coord. in units 2 pi/alat)
               b(1) = (  1.000000  0.000000  1.000000 )  
               b(2) = ( -1.000000  1.000000  0.000000 )  
               b(3) = (  0.000000 -1.000000  1.000000 )  


     PseudoPot. # 1 for Fe read from file:
     ../pseudo/Fe.pbe-nd-rrkjus.UPF
     MD5 check sum: 23c640529ef232ac9996b4ec1b0ce2fd
     Pseudo is Ultrasoft + core correction, Zval =  8.0
     Generated by new atomic code, or converted to UPF format
     Using radial grid of  957 points,  6 beta functions with: 
                l(1) =   0
                l(2) =   0
                l(3) =   1
                l(4) =   1
                l(5) =   2
                l(6) =   2
     Q(r) pseudized with 0 coefficients 


     PseudoPot. # 2 for Fe read from file:
     ../pseudo/Fe.pbe-nd-rrkjus.UPF
     MD5 check sum: 23c640529ef232ac9996b4ec1b0ce2fd
     Pseudo is Ultrasoft + core correction, Zval =  8.0
     Generated by new atomic code, or converted to UPF format
     Using radial grid of  957 points,  6 beta functions with: 
                l(1) =   0
                l(2) =   0
                l(3) =   1
                l(4) =   1
                l(5) =   2
                l(6) =   2
     Q(r) pseudized with 0 coefficients 


     atomic species   valence    mass     pseudopotential
        Fe1            8.00     1.00000     Fe( 1.00)
        Fe             8.00     1.00000     Fe( 1.00)

     Starting magnetic structure 
     atomic species   magnetization
        Fe1          0.600
        Fe           0.600


     Simplified LDA+U calculation (l_max = 2) with parameters (eV):
     atomic species    L          U    alpha       J0     beta
        Fe1            2     0.0000   0.0500   0.0000   0.0000
        Fe             2     0.0000   0.0000   0.0000   0.0000



     48 Sym. Ops., with inversion, found


                                    s                        frac. trans.

      isym =  1     identity                                     

 cryst.   s( 1) = (     1          0          0      )
                  (     0          1          0      )
                  (     0          0          1      )

 cart.    s( 1) = (  1.0000000  0.0000000  0.0000000 )
                  (  0.0000000  1.0000000  0.0000000 )
                  (  0.0000000  0.0000000  1.0000000 )


      isym =  2     180 deg rotation - cart. axis [0,0,1]        

 cryst.   s( 2) = (     0          0          1      )
                  (     1         -1          1      )
                  (     1          0          0      )

 cart.    s( 2) = ( -1.0000000  0.0000000  0.0000000 )
                  (  0.0000000 -1.0000000  0.0000000 )
                  (  0.0000000  0.0000000  1.0000000 )


      isym =  3     180 deg rotation - cart. axis [0,1,0]        

 cryst.   s( 3) = (    -1          1         -1      )
                  (     0          0         -1      )
                  (     0         -1          0      )

 cart.    s( 3) = ( -1.0000000  0.0000000  0.0000000 )
                  (  0.0000000  1.0000000  0.0000000 )
                  (  0.0000000  0.0000000 -1.0000000 )


      isym =  4     180 deg rotation - cart. axis [1,0,0]        

 cryst.   s( 4) = (     0         -1          0      )
                  (    -1          0          0      )
                  (    -1          1         -1      )

 cart.    s( 4) = (  1.0000000  0.0000000  0.0000000 )
                  (  0.0000000 -1.0000000  0.0000000 )
                  (  0.0000000  0.0000000 -1.0000000 )


      isym =  5     180 deg rotation - cart. axis [1,1,0]        

 cryst.   s( 5) = (     0          0         -1      )
                  (     0         -1          0      )
                  (    -1          0          0      )

 cart.    s( 5) = (  0.0000000  1.0000000  0.0000000 )
                  (  1.0000000  0.0000000  0.0000000 )
                  (  0.0000000  0.0000000 -1.0000000 )


      isym =  6     180 deg rotation - cart. axis [1,-1,0]       

 cryst.   s( 6) = (    -1          0          0      )
                  (    -1          1         -1      )
                  (     0          0         -1      )

 cart.    s( 6) = (  0.0000000 -1.0000000  0.0000000 )
                  ( -1.0000000  0.0000000  0.0000000 )
                  (  0.0000000  0.0000000 -1.0000000 )


      isym =  7      90 deg rotation - cart. axis [0,0,-1]       

 cryst.   s( 7) = (     1         -1          1      )
                  (     1          0          0      )
                  (     0          1          0      )

 cart.    s( 7) = (  0.0000000  1.0000000  0.0000000 )
                  ( -1.0000000  0.0000000  0.0000000 )
                  (  0.0000000  0.0000000  1.0000000 )


      isym =  8      90 deg rotation - cart. axis [0,0,1]        

 cryst.   s( 8) = (     0          1          0      )
                  (     0          0          1      )
                  (     1         -1          1      )

 cart.    s( 8) = (  0.0000000 -1.0000000  0.0000000 )
                  (  1.0000000  0.0000000  0.0000000 )
                  (  0.0000000  0.0000000  1.0000000 )


      isym =  9     180 deg rotation - cart. axis [1,0,1]        

 cryst.   s( 9) = (     1         -1          1      )
                  (     0         -1          0      )
                  (     0          0         -1      )

 cart.    s( 9) = (  0.0000000  0.0000000  1.0000000 )
                  (  0.0000000 -1.0000000  0.0000000 )
                  (  1.0000000  0.0000000  0.0000000 )


      isym = 10     180 deg rotation - cart. axis [-1,0,1]       

 cryst.   s(10) = (    -1          0          0      )
                  (     0          0          1      )
                  (     0          1          0      )

 cart.    s(10) = (  0.0000000  0.0000000 -1.0000000 )
                  (  0.0000000 -1.0000000  0.0000000 )
                  ( -1.0000000  0.0000000  0.0000000 )


      isym = 11      90 deg rotation - cart. axis [0,1,0]        

 cryst.   s(11) = (     0          0         -1      )
                  (     1          0          0      )
                  (     1         -1          1      )

 cart.    s(11) = (  0.0000000  0.0000000  1.0000000 )
                  (  0.0000000  1.0000000  0.0000000 )
                  ( -1.0000000  0.0000000  0.0000000 )


      isym = 12      90 deg rotation - cart. axis [0,-1,0]       

 cryst.   s(12) = (     0          1          0      )
                  (    -1          1         -1      )
                  (    -1          0          0      )

 cart.    s(12) = (  0.0000000  0.0000000 -1.0000000 )
                  (  0.0000000  1.0000000  0.0000000 )
                  (  1.0000000  0.0000000  0.0000000 )


      isym = 13     180 deg rotation - cart. axis [0,1,1]        

 cryst.   s(13) = (     0          1          0      )
                  (     1          0          0      )
                  (     0          0         -1      )

 cart.    s(13) = ( -1.0000000  0.0000000  0.0000000 )
                  (  0.0000000  0.0000000  1.0000000 )
                  (  0.0000000  1.0000000  0.0000000 )


      isym = 14     180 deg rotation - cart. axis [0,1,-1]       

 cryst.   s(14) = (    -1          0          0      )
                  (     0         -1          0      )
                  (     1         -1          1      )

 cart.    s(14) = ( -1.0000000  0.0000000  0.0000000 )
                  (  0.0000000  0.0000000 -1.0000000 )
                  (  0.0000000 -1.0000000  0.0000000 )


      isym = 15      90 deg rotation - cart. axis [-1,0,0]       

 cryst.   s(15) = (     0          0         -1      )
                  (    -1          1         -1      )
                  (     0          1          0      )

 cart.    s(15) = (  1.0000000  0.0000000  0.0000000 )
                  (  0.0000000  0.0000000  1.0000000 )
                  (  0.0000000 -1.0000000  0.0000000 )


      isym = 16      90 deg rotation - cart. axis [1,0,0]        

 cryst.   s(16) = (     1         -1          1      )
                  (     0          0          1      )
                  (    -1          0          0      )

 cart.    s(16) = (  1.0000000  0.0000000  0.0000000 )
                  (  0.0000000  0.0000000 -1.0000000 )
                  (  0.0000000  1.0000000  0.0000000 )


      isym = 17     120 deg rotation - cart. axis [-1,-1,-1]     

 cryst.   s(17) = (     1          0          0      )
                  (     0          0         -1      )
                  (    -1          1         -1      )

 cart.    s(17) = (  0.0000000  1.0000000  0.0000000 )
                  (  0.0000000  0.0000000  1.0000000 )
                  (  1.0000000  0.0000000  0.0000000 )


      isym = 18     120 deg rotation - cart. axis [-1,1,1]       

 cryst.   s(18) = (    -1          1         -1      )
                  (     0          1          0      )
                  (     1          0          0      )

 cart.    s(18) = (  0.0000000 -1.0000000  0.0000000 )
                  (  0.0000000  0.0000000  1.0000000 )
                  ( -1.0000000  0.0000000  0.0000000 )


      isym = 19     120 deg rotation - cart. axis [1,1,-1]       

 cryst.   s(19) = (     0         -1          0      )
                  (     1         -1          1      )
                  (     0          0          1      )

 cart.    s(19) = (  0.0000000  1.0000000  0.0000000 )
                  (  0.0000000  0.0000000 -1.0000000 )
                  ( -1.0000000  0.0000000  0.0000000 )


      isym = 20     120 deg rotation - cart. axis [1,-1,1]       

 cryst.   s(20) = (     0          0          1      )
                  (    -1          0          0      )
                  (     0         -1          0      )

 cart.    s(20) = (  0.0000000 -1.0000000  0.0000000 )
                  (  0.0000000  0.0000000 -1.0000000 )
                  (  1.0000000  0.0000000  0.0000000 )


      isym = 21     120 deg rotation - cart. axis [1,1,1]        

 cryst.   s(21) = (     1          0          0      )
                  (     1         -1          1      )
                  (     0         -1          0      )

 cart.    s(21) = (  0.0000000  0.0000000  1.0000000 )
                  (  1.0000000  0.0000000  0.0000000 )
                  (  0.0000000  1.0000000  0.0000000 )


      isym = 22     120 deg rotation - cart. axis [-1,1,-1]      

 cryst.   s(22) = (     0         -1          0      )
                  (     0          0         -1      )
                  (     1          0          0      )

 cart.    s(22) = (  0.0000000  0.0000000  1.0000000 )
                  ( -1.0000000  0.0000000  0.0000000 )
                  (  0.0000000 -1.0000000  0.0000000 )


      isym = 23     120 deg rotation - cart. axis [1,-1,-1]      

 cryst.   s(23) = (     0          0          1      )
                  (     0          1          0      )
                  (    -1          1         -1      )

 cart.    s(23) = (  0.0000000  0.0000000 -1.0000000 )
                  ( -1.0000000  0.0000000  0.0000000 )
                  (  0.0000000  1.0000000  0.0000000 )


      isym = 24     120 deg rotation - cart. axis [-1,-1,1]      

 cryst.   s(24) = (    -1          1         -1      )
                  (    -1          0          0      )
                  (     0          0          1      )

 cart.    s(24) = (  0.0000000  0.0000000 -1.0000000 )
                  (  1.0000000  0.0000000  0.0000000 )
                  (  0.0000000 -1.0000000  0.0000000 )


      isym = 25     inversion                                    

 cryst.   s(25) = (    -1          0          0      )
                  (     0         -1          0      )
                  (     0          0         -1      )

 cart.    s(25) = ( -1.0000000  0.0000000  0.0000000 )
                  (  0.0000000 -1.0000000  0.0000000 )
                  (  0.0000000  0.0000000 -1.0000000 )


      isym = 26     inv. 180 deg rotation - cart. axis [0,0,1]   

 cryst.   s(26) = (     0          0         -1      )
                  (    -1          1         -1      )
                  (    -1          0          0      )

 cart.    s(26) = (  1.0000000  0.0000000  0.0000000 )
                  (  0.0000000  1.0000000  0.0000000 )
                  (  0.0000000  0.0000000 -1.0000000 )


      isym = 27     inv. 180 deg rotation - cart. axis [0,1,0]   

 cryst.   s(27) = (     1         -1          1      )
                  (     0          0          1      )
                  (     0          1          0      )

 cart.    s(27) = (  1.0000000  0.0000000  0.0000000 )
                  (  0.0000000 -1.0000000  0.0000000 )
                  (  0.0000000  0.0000000  1.0000000 )


      isym = 28     inv. 180 deg rotation - cart. axis [1,0,0]   

 cryst.   s(28) = (     0          1          0      )
                  (     1          0          0      )
                  (     1         -1          1      )

 cart.    s(28) = ( -1.0000000  0.0000000  0.0000000 )
                  (  0.0000000  1.0000000  0.0000000 )
                  (  0.0000000  0.0000000  1.0000000 )


      isym = 29     inv. 180 deg rotation - cart. axis [1,1,0]   

 cryst.   s(29) = (     0          0          1      )
                  (     0          1          0      )
                  (     1          0          0      )

 cart.    s(29) = (  0.0000000 -1.0000000  0.0000000 )
                  ( -1.0000000  0.0000000  0.0000000 )
                  (  0.0000000  0.0000000  1.0000000 )


      isym = 30     inv. 180 deg rotation - cart. axis [1,-1,0]  

 cryst.   s(30) = (     1          0          0      )
                  (     1         -1          1      )
                  (     0          0          1      )

 cart.    s(30) = (  0.0000000  1.0000000  0.0000000 )
                  (  1.0000000  0.0000000  0.0000000 )
                  (  0.0000000  0.0000000  1.0000000 )


      isym = 31     inv.  90 deg rotation - cart. axis [0,0,-1]  

 cryst.   s(31) = (    -1          1         -1      )
                  (    -1          0          0      )
                  (     0         -1          0      )

 cart.    s(31) = (  0.0000000 -1.0000000  0.0000000 )
                  (  1.0000000  0.0000000  0.0000000 )
                  (  0.0000000  0.0000000 -1.0000000 )


      isym = 32     inv.  90 deg rotation - cart. axis [0,0,1]   

 cryst.   s(32) = (     0         -1          0      )
                  (     0          0         -1      )
                  (    -1          1         -1      )

 cart.    s(32) = (  0.0000000  1.0000000  0.0000000 )
                  ( -1.0000000  0.0000000  0.0000000 )
                  (  0.0000000  0.0000000 -1.0000000 )


      isym = 33     inv. 180 deg rotation - cart. axis [1,0,1]   

 cryst.   s(33) = (    -1          1         -1      )
                  (     0          1          0      )
                  (     0          0          1      )

 cart.    s(33) = (  0.0000000  0.0000000 -1.0000000 )
                  (  0.0000000  1.0000000  0.0000000 )
                  ( -1.0000000  0.0000000  0.0000000 )


      isym = 34     inv. 180 deg rotation - cart. axis [-1,0,1]  

 cryst.   s(34) = (     1          0          0      )
                  (     0          0         -1      )
                  (     0         -1          0      )

 cart.    s(34) = (  0.0000000  0.0000000  1.0000000 )
                  (  0.0000000  1.0000000  0.0000000 )
                  (  1.0000000  0.0000000  0.0000000 )


      isym = 35     inv.  90 deg rotation - cart. axis [0,1,0]   

 cryst.   s(35) = (     0          0          1      )
                  (    -1          0          0      )
                  (    -1          1         -1      )

 cart.    s(35) = (  0.0000000  0.0000000 -1.0000000 )
                  (  0.0000000 -1.0000000  0.0000000 )
                  (  1.0000000  0.0000000  0.0000000 )


      isym = 36     inv.  90 deg rotation - cart. axis [0,-1,0]  

 cryst.   s(36) = (     0         -1          0      )
                  (     1         -1          1      )
                  (     1          0          0      )

 cart.    s(36) = (  0.0000000  0.0000000  1.0000000 )
                  (  0.0000000 -1.0000000  0.0000000 )
                  ( -1.0000000  0.0000000  0.0000000 )


      isym = 37     inv. 180 deg rotation - cart. axis [0,1,1]   

 cryst.   s(37) = (     0         -1          0      )
                  (    -1          0          0      )
                  (     0          0          1      )

 cart.    s(37) = (  1.0000000  0.0000000  0.0000000 )
                  (  0.0000000  0.0000000 -1.0000000 )
                  (  0.0000000 -1.0000000  0.0000000 )


      isym = 38     inv. 180 deg rotation - cart. axis [0,1,-1]  

 cryst.   s(38) = (     1          0          0      )
                  (     0          1          0      )
                  (    -1          1         -1      )

 cart.    s(38) = (  1.0000000  0.0000000  0.0000000 )
                  (  0.0000000  0.0000000  1.0000000 )
                  (  0.0000000  1.0000000  0.0000000 )


      isym = 39     inv.  90 deg rotation - cart. axis [-1,0,0]  

 cryst.   s(39) = (     0          0          1      )
                  (     1         -1          1      )
                  (     0         -1          0      )

 cart.    s(39) = ( -1.0000000  0.0000000  0.0000000 )
                  (  0.0000000  0.0000000 -1.0000000 )
                  (  0.0000000  1.0000000  0.0000000 )


      isym = 40     inv.  90 deg rotation - cart. axis [1,0,0]   

 cryst.   s(40) = (    -1          1         -1      )
                  (     0          0         -1      )
                  (     1          0          0      )

 cart.    s(40) = ( -1.0000000  0.0000000  0.0000000 )
                  (  0.0000000  0.0000000  1.0000000 )
                  (  0.0000000 -1.0000000  0.0000000 )


      isym = 41     inv. 120 deg rotation - cart. axis [-1,-1,-1]

 cryst.   s(41) = (    -1          0          0      )
                  (     0          0          1      )
                  (     1         -1          1      )

 cart.    s(41) = (  0.0000000 -1.0000000  0.0000000 )
                  (  0.0000000  0.0000000 -1.0000000 )
                  ( -1.0000000  0.0000000  0.0000000 )


      isym = 42     inv. 120 deg rotation - cart. axis [-1,1,1]  

 cryst.   s(42) = (     1         -1          1      )
                  (     0         -1          0      )
                  (    -1          0          0      )

 cart.    s(42) = (  0.0000000  1.0000000  0.0000000 )
                  (  0.0000000  0.0000000 -1.0000000 )
                  (  1.0000000  0.0000000  0.0000000 )


      isym = 43     inv. 120 deg rotation - cart. axis [1,1,-1]  

 cryst.   s(43) = (     0          1          0      )
                  (    -1          1         -1      )
                  (     0          0         -1      )

 cart.    s(43) = (  0.0000000 -1.0000000  0.0000000 )
                  (  0.0000000  0.0000000  1.0000000 )
                  (  1.0000000  0.0000000  0.0000000 )


      isym = 44     inv. 120 deg rotation - cart. axis [1,-1,1]  

 cryst.   s(44) = (     0          0         -1      )
                  (     1          0          0      )
                  (     0          1          0      )

 cart.    s(44) = (  0.0000000  1.0000000  0.0000000 )
                  (  0.0000000  0.0000000  1.0000000 )
                  ( -1.0000000  0.0000000  0.0000000 )


      isym = 45     inv. 120 deg rotation - cart. axis [1,1,1]   

 cryst.   s(45) = (    -1          0          0      )
                  (    -1          1         -1      )
                  (     0          1          0      )

 cart.    s(45) = (  0.0000000  0.0000000 -1.0000000 )
                  ( -1.0000000  0.0000000  0.0000000 )
                  (  0.0000000 -1.0000000  0.0000000 )


      isym = 46     inv. 120 deg rotation - cart. axis [-1,1,-1] 

 cryst.   s(46) = (     0          1          0      )
                  (     0          0          1      )
                  (    -1          0          0      )

 cart.    s(46) = (  0.0000000  0.0000000 -1.0000000 )
                  (  1.0000000  0.0000000  0.0000000 )
                  (  0.0000000  1.0000000  0.0000000 )


      isym = 47     inv. 120 deg rotation - cart. axis [1,-1,-1] 

 cryst.   s(47) = (     0          0         -1      )
                  (     0         -1          0      )
                  (     1         -1          1      )

 cart.    s(47) = (  0.0000000  0.0000000  1.0000000 )
                  (  1.0000000  0.0000000  0.0000000 )
                  (  0.0000000 -1.0000000  0.0000000 )


      isym = 48     inv. 120 deg rotation - cart. axis [-1,-1,1] 

 cryst.   s(48) = (     1         -1          1      )
                  (     1          0          0      )
                  (     0          0         -1      )

 cart.    s(48) = (  0.0000000  0.0000000  1.0000000 )
                  ( -1.0000000  0.0000000  0.0000000 )
                  (  0.0000000  1.0000000  0.0000000 )


     point group O_h (m-3m) 
     there are 10 classes
     the character table:

       E     8C3   6C2'  6C4   3C2   i     6S4   8S6   3s_h  6s_d 
A_1g   1.00  1.00  1.00  1.00  1.00  1.00  1.00  1.00  1.00  1.00
A_2g   1.00  1.00 -1.00 -1.00  1.00  1.00 -1.00  1.00  1.00 -1.00
E_g    2.00 -1.00  0.00  0.00  2.00  2.00  0.00 -1.00  2.00  0.00
T_1g   3.00  0.00 -1.00  1.00 -1.00  3.00  1.00  0.00 -1.00 -1.00
T_2g   3.00  0.00  1.00 -1.00 -1.00  3.00 -1.00  0.00 -1.00  1.00
A_1u   1.00  1.00  1.00  1.00  1.00 -1.00 -1.00 -1.00 -1.00 -1.00
A_2u   1.00  1.00 -1.00 -1.00  1.00 -1.00  1.00 -1.00 -1.00  1.00
E_u    2.00 -1.00  0.00  0.00  2.00 -2.00  0.00  1.00 -2.00  0.00
T_1u   3.00  0.00 -1.00  1.00 -1.00 -3.00 -1.00  0.00  1.00  1.00
T_2u   3.00  0.00  1.00 -1.00 -1.00 -3.00  1.00  0.00  1.00 -1.00

     the symmetry operations in each class:
     E        1
     3C2      2    4    3
     6C2'     5    6   14   13   10    9
     6C4      7    8   15   16   12   11
     8C3     17   19   20   18   24   21   22   23
     i       25
     3s_h    26   28   27
     6s_d    29   30   38   37   34   33
     6S4     31   32   39   40   36   35
     8S6     41   43   44   42   48   45   46   47

   Cartesian axes

     site n.     atom                  positions (alat units)
         1           Fe1 tau(   1) = (   0.0000000   0.0000000   0.0000000  )
         2           Fe  tau(   2) = (   0.2500000   0.2500000   0.2500000  )
         3           Fe  tau(   3) = (  -0.2500000   0.2500000   0.2500000  )
         4           Fe  tau(   4) = (  -0.2500000  -0.2500000   0.2500000  )
         5           Fe  tau(   5) = (   0.0000000   0.5000000   0.5000000  )
         6           Fe  tau(   6) = (  -0.5000000   0.0000000   0.5000000  )
         7           Fe  tau(   7) = (   0.0000000   0.0000000   0.5000000  )
         8           Fe  tau(   8) = (  -0.2500000   0.2500000   0.7500000  )

   Crystallographic axes

     site n.     atom                  positions (cryst. coord.)
         1           Fe1 tau(   1) = (  0.0000000  0.0000000  0.0000000  )
         2           Fe  tau(   2) = (  0.5000000  0.0000000  0.0000000  )
         3           Fe  tau(   3) = (  0.0000000  0.5000000  0.0000000  )
         4           Fe  tau(   4) = (  0.0000000  0.0000000  0.5000000  )
         5           Fe  tau(   5) = (  0.5000000  0.5000000  0.0000000  )
         6           Fe  tau(   6) = (  0.0000000  0.5000000  0.5000000  )
         7           Fe  tau(   7) = (  0.5000000  0.0000000  0.5000000  )
         8           Fe  tau(   8) = (  0.5000000  0.5000000  0.5000000  )

     number of k points=    16  Methfessel-Paxton smearing, width (Ry)=  0.0100
                       cart. coord. in units 2pi/alat
        k(    1) = (   0.0000000   0.0000000   0.0000000), wk =   0.0156250
        k(    2) = (   0.0000000  -0.2500000   0.2500000), wk =   0.1875000
        k(    3) = (   0.0000000   0.5000000  -0.5000000), wk =   0.0937500
        k(    4) = (  -0.2500000   0.7500000  -0.5000000), wk =   0.3750000
        k(    5) = (   0.0000000   0.0000000   0.5000000), wk =   0.0937500
        k(    6) = (   0.0000000   0.7500000  -0.2500000), wk =   0.1875000
        k(    7) = (   0.5000000  -0.5000000   0.5000000), wk =   0.0312500
        k(    8) = (   0.0000000   0.0000000  -1.0000000), wk =   0.0156250
        k(    9) = (   0.0000000   0.0000000   0.0000000), wk =   0.0156250
        k(   10) = (   0.0000000  -0.2500000   0.2500000), wk =   0.1875000
        k(   11) = (   0.0000000   0.5000000  -0.5000000), wk =   0.0937500
        k(   12) = (  -0.2500000   0.7500000  -0.5000000), wk =   0.3750000
        k(   13) = (   0.0000000   0.0000000   0.5000000), wk =   0.0937500
        k(   14) = (   0.0000000   0.7500000  -0.2500000), wk =   0.1875000
        k(   15) = (   0.5000000  -0.5000000   0.5000000), wk =   0.0312500
        k(   16) = (   0.0000000   0.0000000  -1.0000000), wk =   0.0156250

                       cryst. coord.
        k(    1) = (   0.0000000   0.0000000   0.0000000), wk =   0.0156250
        k(    2) = (   0.0000000   0.0000000   0.2500000), wk =   0.1875000
        k(    3) = (   0.0000000   0.0000000  -0.5000000), wk =   0.0937500
        k(    4) = (   0.0000000   0.2500000  -0.5000000), wk =   0.3750000
        k(    5) = (   0.2500000   0.2500000   0.2500000), wk =   0.0937500
        k(    6) = (   0.2500000   0.2500000  -0.5000000), wk =   0.1875000
        k(    7) = (   0.2500000  -0.2500000   0.2500000), wk =   0.0312500
        k(    8) = (  -0.5000000  -0.5000000  -0.5000000), wk =   0.0156250
        k(    9) = (   0.0000000   0.0000000   0.0000000), wk =   0.0156250
        k(   10) = (   0.0000000   0.0000000   0.2500000), wk =   0.1875000
        k(   11) = (   0.0000000   0.0000000  -0.5000000), wk =   0.0937500
        k(   12) = (   0.0000000   0.2500000  -0.5000000), wk =   0.3750000
        k(   13) = (   0.2500000   0.2500000   0.2500000), wk =   0.0937500
        k(   14) = (   0.2500000   0.2500000  -0.5000000), wk =   0.1875000
        k(   15) = (   0.2500000  -0.2500000   0.2500000), wk =   0.0312500
        k(   16) = (  -0.5000000  -0.5000000  -0.5000000), wk =   0.0156250

     Dense  grid:    73525 G-vectors     FFT dimensions: (  60,  60,  60)

     Smooth grid:    14171 G-vectors     FFT dimensions: (  36,  36,  36)

     Largest allocated arrays     est. size (Mb)     dimensions
        Kohn-Sham Wavefunctions         0.34 Mb     (     450,   50)
        Atomic Hubbard wavefuncts       0.27 Mb     (     450,   40)
        NL pseudopotentials             0.99 Mb     (     450,  144)
        Each V/rho on FFT grid          1.65 Mb     (   54000,   2)
        Each G-vector array             0.14 Mb     (   18382)
        G-vector shells                 0.00 Mb     (     490)
     Largest temporary arrays     est. size (Mb)     dimensions
        Auxiliary wavefunctions         1.37 Mb     (     450,  200)
        Each subspace H/S matrix        0.61 Mb     (     200,  200)
        Each <psi_i|beta_j> matrix      0.11 Mb     (     144,   50)
        Arrays for rho mixing           6.59 Mb     (   54000,    8)

     The initial density is read from file :
     ./temp/fe.save/charge-density.dat

 --- in v_hubbard ---
Hubbard energy    0.0276
 -------
     Number of +U iterations with fixed ns =  0
     Starting occupations:
 --- enter write_ns ---
 LDA+U parameters:
U( 1)     =  0.00000000
alpha( 1) =  0.05000000
U( 2)     =  0.00000000
alpha( 2) =  0.00000000
atom    1   Tr[ns(na)] (up, down, total) =   4.88168  2.63170  7.51338
   spin  1
    eigenvalues: 
  0.969  0.969  0.969  0.987  0.987
    eigenvectors:
  0.000  0.000  0.000  0.713  0.287
  0.071  0.313  0.616  0.000  0.000
  0.362  0.291  0.347  0.000  0.000
  0.000  0.000  0.000  0.287  0.713
  0.567  0.396  0.037  0.000  0.000
    occupations:
  0.987  0.000  0.000  0.000  0.000
  0.000  0.969  0.000  0.000  0.000
  0.000  0.000  0.969  0.000  0.000
  0.000  0.000  0.000  0.987  0.000
  0.000  0.000  0.000  0.000  0.969
   spin  2
    eigenvalues: 
  0.447  0.447  0.579  0.579  0.579
    eigenvectors:
  0.760  0.240  0.000  0.000  0.000
  0.000  0.000  0.079  0.543  0.377
  0.000  0.000  0.365  0.130  0.504
  0.240  0.760  0.000  0.000  0.000
  0.000  0.000  0.555  0.326  0.118
    occupations:
  0.447  0.000  0.000  0.000  0.000
  0.000  0.579  0.000  0.000  0.000
  0.000  0.000  0.579  0.000  0.000
  0.000  0.000  0.000  0.447  0.000
  0.000  0.000  0.000  0.000  0.579
atomic mag. moment =     2.249974
atom    2   Tr[ns(na)] (up, down, total) =   4.88168  2.63168  7.51337
   spin  1
    eigenvalues: 
  0.969  0.969  0.969  0.987  0.987
    eigenvectors:
  0.000  0.000  0.000  0.588  0.412
  0.333  0.404  0.262  0.000  0.000
  0.333  0.016  0.651  0.000  0.000
  0.000  0.000  0.000  0.412  0.588
  0.333  0.580  0.087  0.000  0.000
    occupations:
  0.987  0.000  0.000  0.000  0.000
  0.000  0.969  0.000  0.000  0.000
  0.000  0.000  0.969  0.000  0.000
  0.000  0.000  0.000  0.987  0.000
  0.000  0.000  0.000  0.000  0.969
   spin  2
    eigenvalues: 
  0.447  0.447  0.579  0.579  0.579
    eigenvectors:
  0.496  0.504  0.000  0.000  0.000
  0.000  0.000  0.381  0.286  0.333
  0.000  0.000  0.024  0.643  0.333
  0.504  0.496  0.000  0.000  0.000
  0.000  0.000  0.595  0.071  0.333
    occupations:
  0.447  0.000  0.000  0.000  0.000
  0.000  0.579  0.000  0.000  0.000
  0.000  0.000  0.579  0.000  0.000
  0.000  0.000  0.000  0.447  0.000
  0.000  0.000  0.000  0.000  0.579
atomic mag. moment =     2.250002
atom    3   Tr[ns(na)] (up, down, total) =   4.88168  2.63168  7.51337
   spin  1
    eigenvalues: 
  0.969  0.969  0.969  0.987  0.987
    eigenvectors:
  0.000  0.000  0.000  0.567  0.433
  0.333  0.011  0.655  0.000  0.000
  0.333  0.569  0.098  0.000  0.000
  0.000  0.000  0.000  0.433  0.567
  0.333  0.420  0.247  0.000  0.000
    occupations:
  0.987  0.000  0.000  0.000  0.000
  0.000  0.969  0.000  0.000  0.000
  0.000  0.000  0.969  0.000  0.000
  0.000  0.000  0.000  0.987  0.000
  0.000  0.000  0.000  0.000  0.969
   spin  2
    eigenvalues: 
  0.447  0.447  0.579  0.579  0.579
    eigenvectors:
  0.586  0.414  0.000  0.000  0.000
  0.000  0.000  0.026  0.641  0.333
  0.000  0.000  0.599  0.068  0.333
  0.414  0.586  0.000  0.000  0.000
  0.000  0.000  0.376  0.291  0.333
    occupations:
  0.447  0.000  0.000  0.000  0.000
  0.000  0.579  0.000  0.000  0.000
  0.000  0.000  0.579  0.000  0.000
  0.000  0.000  0.000  0.447  0.000
  0.000  0.000  0.000  0.000  0.579
atomic mag. moment =     2.250002
atom    4   Tr[ns(na)] (up, down, total) =   4.88168  2.63168  7.51337
   spin  1
    eigenvalues: 
  0.969  0.969  0.969  0.987  0.987
    eigenvectors:
  0.000  0.000  0.000  0.586  0.414
  0.333  0.056  0.610  0.000  0.000
  0.333  0.311  0.355  0.000  0.000
  0.000  0.000  0.000  0.414  0.586
  0.333  0.632  0.034  0.000  0.000
    occupations:
  0.987  0.000  0.000  0.000  0.000
  0.000  0.969  0.000  0.000  0.000
  0.000  0.000  0.969  0.000  0.000
  0.000  0.000  0.000  0.987  0.000
  0.000  0.000  0.000  0.000  0.969
   spin  2
    eigenvalues: 
  0.447  0.447  0.579  0.579  0.579
    eigenvectors:
  0.453  0.547  0.000  0.000  0.000
  0.000  0.000  0.045  0.622  0.333
  0.000  0.000  0.333  0.334  0.333
  0.547  0.453  0.000  0.000  0.000
  0.000  0.000  0.622  0.045  0.333
    occupations:
  0.447  0.000  0.000  0.000  0.000
  0.000  0.579  0.000  0.000  0.000
  0.000  0.000  0.579  0.000  0.000
  0.000  0.000  0.000  0.447  0.000
  0.000  0.000  0.000  0.000  0.579
atomic mag. moment =     2.250002
atom    5   Tr[ns(na)] (up, down, total) =   4.88169  2.63169  7.51338
   spin  1
    eigenvalues: 
  0.969  0.969  0.969  0.987  0.987
    eigenvectors:
  0.000  0.000  0.000  0.250  0.750
  0.062  0.938  0.000  0.000  0.000
  0.000  0.000  1.000  0.000  0.000
  0.000  0.000  0.000  0.750  0.250
  0.938  0.062  0.000  0.000  0.000
    occupations:
  0.987  0.000  0.000  0.000  0.000
  0.000  0.969  0.000  0.000  0.000
  0.000  0.000  0.969  0.000  0.000
  0.000  0.000  0.000  0.987  0.000
  0.000  0.000  0.000  0.000  0.969
   spin  2
    eigenvalues: 
  0.447  0.447  0.579  0.579  0.579
    eigenvectors:
  0.250  0.750  0.000  0.000  0.000
  0.000  0.000  0.000  0.065  0.935
  0.000  0.000  1.000  0.000  0.000
  0.750  0.250  0.000  0.000  0.000
  0.000  0.000  0.000  0.935  0.065
    occupations:
  0.447  0.000  0.000  0.000  0.000
  0.000  0.579  0.000  0.000  0.000
  0.000  0.000  0.579  0.000  0.000
  0.000  0.000  0.000  0.447  0.000
  0.000  0.000  0.000  0.000  0.579
atomic mag. moment =     2.250000
atom    6   Tr[ns(na)] (up, down, total) =   4.88169  2.63169  7.51338
   spin  1
    eigenvalues: 
  0.969  0.969  0.969  0.987  0.987
    eigenvectors:
  0.000  0.000  0.000  0.250  0.750
  0.000  0.000  1.000  0.000  0.000
  0.358  0.642  0.000  0.000  0.000
  0.000  0.000  0.000  0.750  0.250
  0.642  0.358  0.000  0.000  0.000
    occupations:
  0.987  0.000  0.000  0.000  0.000
  0.000  0.969  0.000  0.000  0.000
  0.000  0.000  0.969  0.000  0.000
  0.000  0.000  0.000  0.987  0.000
  0.000  0.000  0.000  0.000  0.969
   spin  2
    eigenvalues: 
  0.447  0.447  0.579  0.579  0.579
    eigenvectors:
  0.250  0.750  0.000  0.000  0.000
  0.000  0.000  1.000  0.000  0.000
  0.000  0.000  0.000  0.332  0.668
  0.750  0.250  0.000  0.000  0.000
  0.000  0.000  0.000  0.668  0.332
    occupations:
  0.447  0.000  0.000  0.000  0.000
  0.000  0.579  0.000  0.000  0.000
  0.000  0.000  0.579  0.000  0.000
  0.000  0.000  0.000  0.447  0.000
  0.000  0.000  0.000  0.000  0.579
atomic mag. moment =     2.250000
atom    7   Tr[ns(na)] (up, down, total) =   4.88169  2.63169  7.51338
   spin  1
    eigenvalues: 
  0.969  0.969  0.969  0.987  0.987
    eigenvectors:
  0.000  0.000  0.000  1.000  0.000
  0.220  0.780  0.000  0.000  0.000
  0.780  0.220  0.000  0.000  0.000
  0.000  0.000  0.000  0.000  1.000
  0.000  0.000  1.000  0.000  0.000
    occupations:
  0.987  0.000  0.000  0.000  0.000
  0.000  0.969  0.000  0.000  0.000
  0.000  0.000  0.969  0.000  0.000
  0.000  0.000  0.000  0.987  0.000
  0.000  0.000  0.000  0.000  0.969
   spin  2
    eigenvalues: 
  0.447  0.447  0.579  0.579  0.579
    eigenvectors:
  1.000  0.000  0.000  0.000  0.000
  0.000  0.000  0.000  0.277  0.723
  0.000  0.000  0.000  0.723  0.277
  0.000  1.000  0.000  0.000  0.000
  0.000  0.000  1.000  0.000  0.000
    occupations:
  0.447  0.000  0.000  0.000  0.000
  0.000  0.579  0.000  0.000  0.000
  0.000  0.000  0.579  0.000  0.000
  0.000  0.000  0.000  0.447  0.000
  0.000  0.000  0.000  0.000  0.579
atomic mag. moment =     2.250000
atom    8   Tr[ns(na)] (up, down, total) =   4.88168  2.63168  7.51337
   spin  1
    eigenvalues: 
  0.969  0.969  0.969  0.987  0.987
    eigenvectors:
  0.000  0.000  0.000  0.500  0.500
  0.333  0.666  0.001  0.000  0.000
  0.333  0.147  0.520  0.000  0.000
  0.000  0.000  0.000  0.500  0.500
  0.333  0.188  0.479  0.000  0.000
    occupations:
  0.987  0.000  0.000  0.000  0.000
  0.000  0.969  0.000  0.000  0.000
  0.000  0.000  0.969  0.000  0.000
  0.000  0.000  0.000  0.987  0.000
  0.000  0.000  0.000  0.000  0.969
   spin  2
    eigenvalues: 
  0.447  0.447  0.579  0.579  0.579
    eigenvectors:
  0.540  0.460  0.000  0.000  0.000
  0.000  0.000  0.665  0.002  0.333
  0.000  0.000  0.136  0.530  0.333
  0.460  0.540  0.000  0.000  0.000
  0.000  0.000  0.199  0.468  0.333
    occupations:
  0.447  0.000  0.000  0.000  0.000
  0.000  0.579  0.000  0.000  0.000
  0.000  0.000  0.579  0.000  0.000
  0.000  0.000  0.000  0.447  0.000
  0.000  0.000  0.000  0.000  0.579
atomic mag. moment =     2.250002
N of occupied +U levels =   60.106981
 --- exit write_ns ---
 Atomic wfc used for LDA+U Projector are NOT orthogonalized
     Starting wfc from file

     total cpu time spent up to now is        2.1 secs

     per-process dynamical memory:    25.7 Mb

     Self-consistent Calculation

     iteration #  1     ecut=    30.00 Ry     beta=0.30
     Davidson diagonalization with overlap
     c_bands:  2 eigenvalues not converged
     c_bands:  4 eigenvalues not converged
     c_bands:  2 eigenvalues not converged
     c_bands:  3 eigenvalues not converged
     c_bands:  1 eigenvalues not converged
     c_bands:  1 eigenvalues not converged
     c_bands:  4 eigenvalues not converged
     c_bands:  2 eigenvalues not converged
     ethr =  1.72E-12,  avg # of iterations = 13.3
 --- enter write_ns ---
 LDA+U parameters:
U( 1)     =  0.00000000
alpha( 1) =  0.05000000
U( 2)     =  0.00000000
alpha( 2) =  0.00000000
atom    1   Tr[ns(na)] (up, down, total) =   4.87673  2.59019  7.46692
   spin  1
    eigenvalues: 
  0.968  0.968  0.968  0.987  0.987
    eigenvectors:
  0.000  0.000  0.000  0.594  0.406
  0.062  0.289  0.649  0.000  0.000
  0.329  0.346  0.325  0.000  0.000
  0.000  0.000  0.000  0.406  0.594
  0.609  0.365  0.026  0.000  0.000
    occupations:
  0.987  0.000  0.000  0.000  0.000
  0.000  0.968  0.000  0.000  0.000
  0.000  0.000  0.968  0.000  0.000
  0.000  0.000  0.000  0.987  0.000
  0.000  0.000  0.000  0.000  0.968
   spin  2
    eigenvalues: 
  0.440  0.440  0.570  0.570  0.570
    eigenvectors:
  0.616  0.384  0.000  0.000  0.000
  0.000  0.000  0.068  0.435  0.497
  0.000  0.000  0.331  0.231  0.438
  0.384  0.616  0.000  0.000  0.000
  0.000  0.000  0.601  0.334  0.065
    occupations:
  0.440  0.000  0.000  0.000  0.000
  0.000  0.570  0.000  0.000  0.000
  0.000  0.000  0.570  0.000  0.000
  0.000  0.000  0.000  0.440  0.000
  0.000  0.000  0.000  0.000  0.570
atomic mag. moment =     2.286546
atom    2   Tr[ns(na)] (up, down, total) =   4.88217  2.63813  7.52031
   spin  1
    eigenvalues: 
  0.969  0.969  0.969  0.987  0.987
    eigenvectors:
  0.000  0.000  0.000  0.543  0.457
  0.333  0.501  0.166  0.000  0.000
  0.333  0.000  0.667  0.000  0.000
  0.000  0.000  0.000  0.457  0.543
  0.333  0.499  0.167  0.000  0.000
    occupations:
  0.987  0.000  0.000  0.000  0.000
  0.000  0.969  0.000  0.000  0.000
  0.000  0.000  0.969  0.000  0.000
  0.000  0.000  0.000  0.987  0.000
  0.000  0.000  0.000  0.000  0.969
   spin  2
    eigenvalues: 
  0.448  0.448  0.580  0.580  0.581
    eigenvectors:
  0.617  0.383  0.000  0.000  0.000
  0.000  0.000  0.464  0.203  0.333
  0.000  0.000  0.002  0.664  0.333
  0.383  0.617  0.000  0.000  0.000
  0.000  0.000  0.534  0.133  0.333
    occupations:
  0.448  0.000  0.000  0.000 -0.001
  0.000  0.581  0.000  0.000  0.000
  0.000  0.000  0.581  0.000  0.000
  0.000  0.000  0.000  0.448  0.000
 -0.001  0.000  0.000  0.000  0.581
atomic mag. moment =     2.244039
atom    3   Tr[ns(na)] (up, down, total) =   4.88217  2.63813  7.52031
   spin  1
    eigenvalues: 
  0.969  0.969  0.969  0.987  0.987
    eigenvectors:
  0.000  0.000  0.000  0.591  0.409
  0.333  0.019  0.648  0.000  0.000
  0.333  0.586  0.080  0.000  0.000
  0.000  0.000  0.000  0.409  0.591
  0.333  0.395  0.272  0.000  0.000
    occupations:
  0.987  0.000  0.000  0.000  0.000
  0.000  0.969  0.000  0.000  0.000
  0.000  0.000  0.969  0.000  0.000
  0.000  0.000  0.000  0.987  0.000
  0.000  0.000  0.000  0.000  0.969
   spin  2
    eigenvalues: 
  0.448  0.448  0.580  0.580  0.581
    eigenvectors:
  0.592  0.408  0.000  0.000  0.000
  0.000  0.000  0.017  0.649  0.333
  0.000  0.000  0.583  0.084  0.333
  0.408  0.592  0.000  0.000  0.000
  0.000  0.000  0.400  0.267  0.333
    occupations:
  0.448  0.000  0.000  0.000  0.001
  0.000  0.581  0.000  0.000  0.000
  0.000  0.000  0.581  0.000  0.000
  0.000  0.000  0.000  0.448  0.000
  0.001  0.000  0.000  0.000  0.581
atomic mag. moment =     2.244039
atom    4   Tr[ns(na)] (up, down, total) =   4.88217  2.63813  7.52031
   spin  1
    eigenvalues: 
  0.969  0.969  0.969  0.987  0.987
    eigenvectors:
  0.000  0.000  0.000  0.651  0.349
  0.333  0.056  0.611  0.000  0.000
  0.333  0.313  0.354  0.000  0.000
  0.000  0.000  0.000  0.349  0.651
  0.333  0.632  0.035  0.000  0.000
    occupations:
  0.987  0.000  0.000  0.000  0.000
  0.000  0.969  0.000  0.000  0.000
  0.000  0.000  0.969  0.000  0.000
  0.000  0.000  0.000  0.987  0.000
  0.000  0.000  0.000  0.000  0.969
   spin  2
    eigenvalues: 
  0.448  0.448  0.580  0.580  0.581
    eigenvectors:
  0.642  0.358  0.000  0.000  0.000
  0.000  0.000  0.052  0.615  0.333
  0.000  0.000  0.320  0.347  0.333
  0.358  0.642  0.000  0.000  0.000
  0.000  0.000  0.629  0.038  0.333
    occupations:
  0.448  0.000  0.000  0.000 -0.001
  0.000  0.581  0.000  0.000  0.000
  0.000  0.000  0.581  0.000  0.000
  0.000  0.000  0.000  0.448  0.000
 -0.001  0.000  0.000  0.000  0.581
atomic mag. moment =     2.244039
atom    5   Tr[ns(na)] (up, down, total) =   4.88276  2.63483  7.51759
   spin  1
    eigenvalues: 
  0.969  0.969  0.970  0.987  0.988
    eigenvectors:
  0.000  0.000  0.000  0.250  0.750
  0.064  0.936  0.000  0.000  0.000
  0.000  0.000  1.000  0.000  0.000
  0.000  0.000  0.000  0.750  0.250
  0.936  0.064  0.000  0.000  0.000
    occupations:
  0.987  0.000  0.000  0.000  0.000
  0.000  0.969  0.000  0.000  0.000
  0.000  0.000  0.970  0.000  0.000
  0.000  0.000  0.000  0.987  0.000
  0.000  0.000  0.000  0.000  0.969
   spin  2
    eigenvalues: 
  0.447  0.447  0.580  0.580  0.580
    eigenvectors:
  0.750  0.250  0.000  0.000  0.000
  0.000  0.000  0.074  0.926  0.000
  0.000  0.000  0.000  0.000  1.000
  0.250  0.750  0.000  0.000  0.000
  0.000  0.000  0.926  0.074  0.000
    occupations:
  0.447  0.000  0.000  0.000  0.000
  0.000  0.580  0.000  0.000  0.000
  0.000  0.000  0.580  0.000  0.000
  0.000  0.000  0.000  0.447  0.000
  0.000  0.000  0.000  0.000  0.580
atomic mag. moment =     2.247932
atom    6   Tr[ns(na)] (up, down, total) =   4.88276  2.63483  7.51759
   spin  1
    eigenvalues: 
  0.969  0.969  0.970  0.987  0.988
    eigenvectors:
  0.000  0.000  0.000  0.250  0.750
  0.000  0.000  1.000  0.000  0.000
  0.335  0.665  0.000  0.000  0.000
  0.000  0.000  0.000  0.750  0.250
  0.665  0.335  0.000  0.000  0.000
    occupations:
  0.987  0.000  0.000  0.000  0.000
  0.000  0.970  0.000  0.000  0.000
  0.000  0.000  0.969  0.000  0.000
  0.000  0.000  0.000  0.987  0.000
  0.000  0.000  0.000  0.000  0.969
   spin  2
    eigenvalues: 
  0.447  0.447  0.580  0.580  0.580
    eigenvectors:
  0.750  0.250  0.000  0.000  0.000
  0.000  0.000  0.000  0.000  1.000
  0.000  0.000  0.389  0.611  0.000
  0.250  0.750  0.000  0.000  0.000
  0.000  0.000  0.611  0.389  0.000
    occupations:
  0.447  0.000  0.000  0.000  0.000
  0.000  0.580  0.000  0.000  0.000
  0.000  0.000  0.580  0.000  0.000
  0.000  0.000  0.000  0.447  0.000
  0.000  0.000  0.000  0.000  0.580
atomic mag. moment =     2.247932
atom    7   Tr[ns(na)] (up, down, total) =   4.88276  2.63483  7.51759
   spin  1
    eigenvalues: 
  0.969  0.969  0.970  0.987  0.988
    eigenvectors:
  0.000  0.000  0.000  1.000  0.000
  0.210  0.790  0.000  0.000  0.000
  0.790  0.210  0.000  0.000  0.000
  0.000  0.000  0.000  0.000  1.000
  0.000  0.000  1.000  0.000  0.000
    occupations:
  0.987  0.000  0.000  0.000  0.000
  0.000  0.969  0.000  0.000  0.000
  0.000  0.000  0.969  0.000  0.000
  0.000  0.000  0.000  0.988  0.000
  0.000  0.000  0.000  0.000  0.970
   spin  2
    eigenvalues: 
  0.447  0.447  0.580  0.580  0.580
    eigenvectors:
  0.000  1.000  0.000  0.000  0.000
  0.000  0.000  0.242  0.758  0.000
  0.000  0.000  0.758  0.242  0.000
  1.000  0.000  0.000  0.000  0.000
  0.000  0.000  0.000  0.000  1.000
    occupations:
  0.447  0.000  0.000  0.000  0.000
  0.000  0.580  0.000  0.000  0.000
  0.000  0.000  0.580  0.000  0.000
  0.000  0.000  0.000  0.447  0.000
  0.000  0.000  0.000  0.000  0.580
atomic mag. moment =     2.247932
atom    8   Tr[ns(na)] (up, down, total) =   4.88217  2.63813  7.52031
   spin  1
    eigenvalues: 
  0.969  0.969  0.969  0.987  0.987
    eigenvectors:
  0.000  0.000  0.000  0.622  0.378
  0.333  0.662  0.005  0.000  0.000
  0.333  0.120  0.546  0.000  0.000
  0.000  0.000  0.000  0.378  0.622
  0.333  0.218  0.449  0.000  0.000
    occupations:
  0.987  0.000  0.000  0.000  0.000
  0.000  0.969  0.000  0.000  0.000
  0.000  0.000  0.969  0.000  0.000
  0.000  0.000  0.000  0.987  0.000
  0.000  0.000  0.000  0.000  0.969
   spin  2
    eigenvalues: 
  0.448  0.448  0.580  0.580  0.581
    eigenvectors:
  0.629  0.371  0.000  0.000  0.000
  0.000  0.000  0.664  0.002  0.333
  0.000  0.000  0.133  0.534  0.333
  0.371  0.629  0.000  0.000  0.000
  0.000  0.000  0.203  0.464  0.333
    occupations:
  0.448  0.000  0.000  0.000  0.001
  0.000  0.581  0.000  0.000  0.000
  0.000  0.000  0.581  0.000  0.000
  0.000  0.000  0.000  0.448  0.000
  0.001  0.000  0.000  0.000  0.581
atomic mag. moment =     2.244039
N of occupied +U levels =   60.100909
 --- exit write_ns ---
 --- in v_hubbard ---
Hubbard energy    0.0276
 -------
 
     Magnetic moment per site:
     atom:    1    charge:    6.4652    magn:    2.5329    constr:    0.0000
     atom:    2    charge:    6.4796    magn:    2.5230    constr:    0.0000
     atom:    3    charge:    6.4796    magn:    2.5230    constr:    0.0000
     atom:    4    charge:    6.4796    magn:    2.5230    constr:    0.0000
     atom:    5    charge:    6.4789    magn:    2.5241    constr:    0.0000
     atom:    6    charge:    6.4789    magn:    2.5241    constr:    0.0000
     atom:    7    charge:    6.4789    magn:    2.5241    constr:    0.0000
     atom:    8    charge:    6.4796    magn:    2.5230    constr:    0.0000

     total cpu time spent up to now is       14.1 secs

     total energy              =    -446.38626319 Ry
     Harris-Foulkes estimate   =    -446.38677640 Ry
     estimated scf accuracy    <       0.00110176 Ry

     total magnetization       =    19.55 Bohr mag/cell
     absolute magnetization    =    20.99 Bohr mag/cell

     iteration #  2     ecut=    30.00 Ry     beta=0.30
     Davidson diagonalization with overlap
     ethr =  1.72E-06,  avg # of iterations =  2.9
 --- enter write_ns ---
 LDA+U parameters:
U( 1)     =  0.00000000
alpha( 1) =  0.05000000
U( 2)     =  0.00000000
alpha( 2) =  0.00000000
atom    1   Tr[ns(na)] (up, down, total) =   4.90445  2.72443  7.62888
   spin  1
    eigenvalues: 
  0.975  0.975  0.975  0.990  0.990
    eigenvectors:
  0.000  0.000  0.000  0.631  0.369
  0.065  0.325  0.609  0.000  0.000
  0.333  0.311  0.356  0.000  0.000
  0.000  0.000  0.000  0.369  0.631
  0.601  0.364  0.035  0.000  0.000
    occupations:
  0.990  0.000  0.000  0.000  0.000
  0.000  0.975  0.000  0.000  0.000
  0.000  0.000  0.975  0.000  0.000
  0.000  0.000  0.000  0.990  0.000
  0.000  0.000  0.000  0.000  0.975
   spin  2
    eigenvalues: 
  0.461  0.461  0.601  0.601  0.601
    eigenvectors:
  0.658  0.342  0.000  0.000  0.000
  0.000  0.000  0.072  0.381  0.548
  0.000  0.000  0.350  0.250  0.399
  0.342  0.658  0.000  0.000  0.000
  0.000  0.000  0.578  0.369  0.053
    occupations:
  0.461  0.000  0.000  0.000  0.000
  0.000  0.601  0.000  0.000  0.000
  0.000  0.000  0.601  0.000  0.000
  0.000  0.000  0.000  0.461  0.000
  0.000  0.000  0.000  0.000  0.601
atomic mag. moment =     2.180025
atom    2   Tr[ns(na)] (up, down, total) =   4.88027  2.61491  7.49518
   spin  1
    eigenvalues: 
  0.968  0.968  0.971  0.987  0.987
    eigenvectors:
  0.000  0.000  0.000  0.620  0.380
  0.429  0.237  0.333  0.000  0.000
  0.009  0.658  0.333  0.000  0.000
  0.000  0.000  0.000  0.380  0.620
  0.562  0.105  0.333  0.000  0.000
    occupations:
  0.987  0.000  0.000  0.000  0.000
  0.000  0.969  0.001  0.000 -0.001
  0.000  0.001  0.969  0.000 -0.001
  0.000  0.000  0.000  0.987  0.000
  0.000 -0.001 -0.001  0.000  0.969
   spin  2
    eigenvalues: 
  0.444  0.444  0.574  0.576  0.576
    eigenvectors:
  0.642  0.358  0.000  0.000  0.000
  0.000  0.000  0.333  0.408  0.259
  0.000  0.000  0.333  0.015  0.652
  0.358  0.642  0.000  0.000  0.000
  0.000  0.000  0.333  0.577  0.089
    occupations:
  0.444  0.001  0.001  0.000  0.001
  0.001  0.576 -0.001  0.001  0.001
  0.001 -0.001  0.576 -0.001  0.001
  0.000  0.001 -0.001  0.444  0.000
  0.001  0.001  0.001  0.000  0.576
atomic mag. moment =     2.265360
atom    3   Tr[ns(na)] (up, down, total) =   4.88027  2.61491  7.49518
   spin  1
    eigenvalues: 
  0.968  0.968  0.971  0.987  0.987
    eigenvectors:
  0.000  0.000  0.000  0.637  0.363
  0.020  0.646  0.333  0.000  0.000
  0.589  0.078  0.333  0.000  0.000
  0.000  0.000  0.000  0.363  0.637
  0.391  0.276  0.333  0.000  0.000
    occupations:
  0.987  0.000  0.000  0.000  0.000
  0.000  0.969 -0.001  0.000 -0.001
  0.000 -0.001  0.969  0.000  0.001
  0.000  0.000  0.000  0.987  0.000
  0.000 -0.001  0.001  0.000  0.969
   spin  2
    eigenvalues: 
  0.444  0.444  0.574  0.576  0.576
    eigenvectors:
  0.719  0.281  0.000  0.000  0.000
  0.000  0.000  0.333  0.015  0.652
  0.000  0.000  0.333  0.578  0.089
  0.281  0.719  0.000  0.000  0.000
  0.000  0.000  0.333  0.407  0.260
    occupations:
  0.444 -0.001  0.001  0.000 -0.001
 -0.001  0.576  0.001 -0.001  0.001
  0.001  0.001  0.576 -0.001 -0.001
  0.000 -0.001 -0.001  0.444  0.000
 -0.001  0.001 -0.001  0.000  0.576
atomic mag. moment =     2.265360
atom    4   Tr[ns(na)] (up, down, total) =   4.88027  2.61491  7.49518
   spin  1
    eigenvalues: 
  0.968  0.968  0.971  0.987  0.987
    eigenvectors:
  0.000  0.000  0.000  0.646  0.354
  0.058  0.608  0.333  0.000  0.000
  0.308  0.359  0.333  0.000  0.000
  0.000  0.000  0.000  0.354  0.646
  0.634  0.033  0.333  0.000  0.000
    occupations:
  0.987  0.000  0.000  0.000  0.000
  0.000  0.969  0.001  0.000  0.001
  0.000  0.001  0.969  0.000  0.001
  0.000  0.000  0.000  0.987  0.000
  0.000  0.001  0.001  0.000  0.969
   spin  2
    eigenvalues: 
  0.444  0.444  0.574  0.576  0.576
    eigenvectors:
  0.640  0.360  0.000  0.000  0.000
  0.000  0.000  0.333  0.060  0.607
  0.000  0.000  0.333  0.305  0.361
  0.360  0.640  0.000  0.000  0.000
  0.000  0.000  0.333  0.635  0.032
    occupations:
  0.444 -0.001 -0.001  0.000  0.001
 -0.001  0.576 -0.001 -0.001 -0.001
 -0.001 -0.001  0.576  0.001 -0.001
  0.000 -0.001  0.001  0.444  0.000
  0.001 -0.001 -0.001  0.000  0.576
atomic mag. moment =     2.265360
atom    5   Tr[ns(na)] (up, down, total) =   4.87715  2.62019  7.49734
   spin  1
    eigenvalues: 
  0.966  0.969  0.969  0.987  0.987
    eigenvectors:
  0.000  0.000  0.000  0.750  0.250
  0.000  0.065  0.935  0.000  0.000
  1.000  0.000  0.000  0.000  0.000
  0.000  0.000  0.000  0.250  0.750
  0.000  0.935  0.065  0.000  0.000
    occupations:
  0.987  0.000  0.000  0.000  0.000
  0.000  0.969  0.000  0.000  0.000
  0.000  0.000  0.966  0.000  0.000
  0.000  0.000  0.000  0.987  0.000
  0.000  0.000  0.000  0.000  0.969
   spin  2
    eigenvalues: 
  0.445  0.446  0.576  0.577  0.577
    eigenvectors:
  0.250  0.750  0.000  0.000  0.000
  0.000  0.000  0.000  0.066  0.934
  0.000  0.000  1.000  0.000  0.000
  0.750  0.250  0.000  0.000  0.000
  0.000  0.000  0.000  0.934  0.066
    occupations:
  0.446  0.000  0.000  0.001  0.000
  0.000  0.577  0.000  0.000  0.000
  0.000  0.000  0.576  0.000  0.000
  0.001  0.000  0.000  0.445  0.000
  0.000  0.000  0.000  0.000  0.577
atomic mag. moment =     2.256968
atom    6   Tr[ns(na)] (up, down, total) =   4.87715  2.62019  7.49734
   spin  1
    eigenvalues: 
  0.966  0.969  0.969  0.987  0.987
    eigenvectors:
  0.000  0.000  0.000  0.750  0.250
  1.000  0.000  0.000  0.000  0.000
  0.000  0.367  0.633  0.000  0.000
  0.000  0.000  0.000  0.250  0.750
  0.000  0.633  0.367  0.000  0.000
    occupations:
  0.987  0.000  0.000  0.000  0.000
  0.000  0.966  0.000  0.000  0.000
  0.000  0.000  0.969  0.000  0.000
  0.000  0.000  0.000  0.987  0.000
  0.000  0.000  0.000  0.000  0.969
   spin  2
    eigenvalues: 
  0.445  0.446  0.576  0.577  0.577
    eigenvectors:
  0.250  0.750  0.000  0.000  0.000
  0.000  0.000  1.000  0.000  0.000
  0.000  0.000  0.000  0.348  0.652
  0.750  0.250  0.000  0.000  0.000
  0.000  0.000  0.000  0.652  0.348
    occupations:
  0.446  0.000  0.000 -0.001  0.000
  0.000  0.576  0.000  0.000  0.000
  0.000  0.000  0.577  0.000  0.000
 -0.001  0.000  0.000  0.445  0.000
  0.000  0.000  0.000  0.000  0.577
atomic mag. moment =     2.256968
atom    7   Tr[ns(na)] (up, down, total) =   4.87715  2.62019  7.49734
   spin  1
    eigenvalues: 
  0.966  0.969  0.969  0.987  0.987
    eigenvectors:
  0.000  0.000  0.000  0.000  1.000
  0.000  0.240  0.760  0.000  0.000
  0.000  0.760  0.240  0.000  0.000
  0.000  0.000  0.000  1.000  0.000
  1.000  0.000  0.000  0.000  0.000
    occupations:
  0.987  0.000  0.000  0.000  0.000
  0.000  0.969  0.000  0.000  0.000
  0.000  0.000  0.969  0.000  0.000
  0.000  0.000  0.000  0.987  0.000
  0.000  0.000  0.000  0.000  0.966
   spin  2
    eigenvalues: 
  0.445  0.446  0.576  0.577  0.577
    eigenvectors:
  1.000  0.000  0.000  0.000  0.000
  0.000  0.000  0.000  0.231  0.769
  0.000  0.000  0.000  0.769  0.231
  0.000  1.000  0.000  0.000  0.000
  0.000  0.000  1.000  0.000  0.000
    occupations:
  0.445  0.000  0.000  0.000  0.000
  0.000  0.577  0.000  0.000  0.000
  0.000  0.000  0.577  0.000  0.000
  0.000  0.000  0.000  0.446  0.000
  0.000  0.000  0.000  0.000  0.576
atomic mag. moment =     2.256968
atom    8   Tr[ns(na)] (up, down, total) =   4.88027  2.61491  7.49518
   spin  1
    eigenvalues: 
  0.968  0.968  0.971  0.987  0.987
    eigenvectors:
  0.000  0.000  0.000  0.678  0.322
  0.662  0.004  0.333  0.000  0.000
  0.122  0.544  0.333  0.000  0.000
  0.000  0.000  0.000  0.322  0.678
  0.216  0.451  0.333  0.000  0.000
    occupations:
  0.987  0.000  0.000  0.000  0.000
  0.000  0.969 -0.001  0.000  0.001
  0.000 -0.001  0.969  0.000 -0.001
  0.000  0.000  0.000  0.987  0.000
  0.000  0.001 -0.001  0.000  0.969
   spin  2
    eigenvalues: 
  0.444  0.444  0.574  0.576  0.576
    eigenvectors:
  0.523  0.477  0.000  0.000  0.000
  0.000  0.000  0.333  0.661  0.006
  0.000  0.000  0.333  0.115  0.551
  0.477  0.523  0.000  0.000  0.000
  0.000  0.000  0.333  0.224  0.443
    occupations:
  0.444  0.001 -0.001  0.000 -0.001
  0.001  0.576  0.001  0.001 -0.001
 -0.001  0.001  0.576  0.001  0.001
  0.000  0.001  0.001  0.444  0.000
 -0.001 -0.001  0.001  0.000  0.576
atomic mag. moment =     2.265360
N of occupied +U levels =   60.101616
 --- exit write_ns ---
 --- in v_hubbard ---
Hubbard energy    0.0276
 -------
 
     Magnetic moment per site:
     atom:    1    charge:    6.4746    magn:    2.5297    constr:    0.0000
     atom:    2    charge:    6.4782    magn:    2.5238    constr:    0.0000
     atom:    3    charge:    6.4782    magn:    2.5238    constr:    0.0000
     atom:    4    charge:    6.4782    magn:    2.5238    constr:    0.0000
     atom:    5    charge:    6.4777    magn:    2.5243    constr:    0.0000
     atom:    6    charge:    6.4777    magn:    2.5243    constr:    0.0000
     atom:    7    charge:    6.4777    magn:    2.5243    constr:    0.0000
     atom:    8    charge:    6.4782    magn:    2.5238    constr:    0.0000

     total cpu time spent up to now is       18.8 secs

     total energy              =    -446.38590174 Ry
     Harris-Foulkes estimate   =    -446.38757063 Ry
     estimated scf accuracy    <       0.01388083 Ry

     total magnetization       =    19.55 Bohr mag/cell
     absolute magnetization    =    21.00 Bohr mag/cell

     iteration #  3     ecut=    30.00 Ry     beta=0.30
     Davidson diagonalization with overlap
     ethr =  1.72E-06,  avg # of iterations =  1.8
 --- enter write_ns ---
 LDA+U parameters:
U( 1)     =  0.00000000
alpha( 1) =  0.05000000
U( 2)     =  0.00000000
alpha( 2) =  0.00000000
atom    1   Tr[ns(na)] (up, down, total) =   4.88319  2.61795  7.50114
   spin  1
    eigenvalues: 
  0.969  0.969  0.969  0.988  0.988
    eigenvectors:
  0.000  0.000  0.000  0.488  0.512
  0.068  0.424  0.508  0.000  0.000
  0.332  0.238  0.430  0.000  0.000
  0.000  0.000  0.000  0.512  0.488
  0.601  0.338  0.062  0.000  0.000
    occupations:
  0.988  0.000  0.000  0.000  0.000
  0.000  0.969  0.000  0.000  0.000
  0.000  0.000  0.969  0.000  0.000
  0.000  0.000  0.000  0.988  0.000
  0.000  0.000  0.000  0.000  0.969
   spin  2
    eigenvalues: 
  0.444  0.444  0.576  0.576  0.576
    eigenvectors:
  0.710  0.290  0.000  0.000  0.000
  0.000  0.000  0.077  0.586  0.337
  0.000  0.000  0.348  0.116  0.535
  0.290  0.710  0.000  0.000  0.000
  0.000  0.000  0.575  0.298  0.128
    occupations:
  0.444  0.000  0.000  0.000  0.000
  0.000  0.576  0.000  0.000  0.000
  0.000  0.000  0.576  0.000  0.000
  0.000  0.000  0.000  0.444  0.000
  0.000  0.000  0.000  0.000  0.576
atomic mag. moment =     2.265235
atom    2   Tr[ns(na)] (up, down, total) =   4.88146  2.63198  7.51344
   spin  1
    eigenvalues: 
  0.969  0.969  0.969  0.987  0.987
    eigenvectors:
  0.000  0.000  0.000  0.618  0.382
  0.448  0.219  0.333  0.000  0.000
  0.005  0.662  0.333  0.000  0.000
  0.000  0.000  0.000  0.382  0.618
  0.547  0.120  0.333  0.000  0.000
    occupations:
  0.987  0.000  0.000  0.000  0.000
  0.000  0.969  0.000  0.000  0.000
  0.000  0.000  0.969  0.000  0.000
  0.000  0.000  0.000  0.987  0.000
  0.000  0.000  0.000  0.000  0.969
   spin  2
    eigenvalues: 
  0.447  0.447  0.579  0.579  0.579
    eigenvectors:
  0.599  0.401  0.000  0.000  0.000
  0.000  0.000  0.433  0.234  0.333
  0.000  0.000  0.008  0.659  0.333
  0.401  0.599  0.000  0.000  0.000
  0.000  0.000  0.559  0.108  0.333
    occupations:
  0.447  0.000  0.000  0.000  0.000
  0.000  0.579  0.000  0.000  0.000
  0.000  0.000  0.579  0.000  0.000
  0.000  0.000  0.000  0.447  0.000
  0.000  0.000  0.000  0.000  0.579
atomic mag. moment =     2.249485
atom    3   Tr[ns(na)] (up, down, total) =   4.88146  2.63198  7.51344
   spin  1
    eigenvalues: 
  0.969  0.969  0.969  0.987  0.987
    eigenvectors:
  0.000  0.000  0.000  0.612  0.388
  0.017  0.650  0.333  0.000  0.000
  0.582  0.084  0.333  0.000  0.000
  0.000  0.000  0.000  0.388  0.612
  0.401  0.266  0.333  0.000  0.000
    occupations:
  0.987  0.000  0.000  0.000  0.000
  0.000  0.969  0.000  0.000  0.000
  0.000  0.000  0.969  0.000  0.000
  0.000  0.000  0.000  0.987  0.000
  0.000  0.000  0.000  0.000  0.969
   spin  2
    eigenvalues: 
  0.447  0.447  0.579  0.579  0.579
    eigenvectors:
  0.592  0.408  0.000  0.000  0.000
  0.000  0.000  0.011  0.655  0.333
  0.000  0.000  0.569  0.098  0.333
  0.408  0.592  0.000  0.000  0.000
  0.000  0.000  0.420  0.247  0.333
    occupations:
  0.447  0.000  0.000  0.000  0.000
  0.000  0.579  0.000  0.000  0.000
  0.000  0.000  0.579  0.000  0.000
  0.000  0.000  0.000  0.447  0.000
  0.000  0.000  0.000  0.000  0.579
atomic mag. moment =     2.249485
atom    4   Tr[ns(na)] (up, down, total) =   4.88146  2.63198  7.51344
   spin  1
    eigenvalues: 
  0.969  0.969  0.969  0.987  0.987
    eigenvectors:
  0.000  0.000  0.000  0.721  0.279
  0.061  0.606  0.333  0.000  0.000
  0.303  0.363  0.333  0.000  0.000
  0.000  0.000  0.000  0.279  0.721
  0.636  0.031  0.333  0.000  0.000
    occupations:
  0.987  0.000  0.000  0.000  0.000
  0.000  0.969  0.000  0.000  0.000
  0.000  0.000  0.969  0.000  0.000
  0.000  0.000  0.000  0.987  0.000
  0.000  0.000  0.000  0.000  0.969
   spin  2
    eigenvalues: 
  0.447  0.447  0.579  0.579  0.579
    eigenvectors:
  0.634  0.366  0.000  0.000  0.000
  0.000  0.000  0.053  0.614  0.333
  0.000  0.000  0.318  0.349  0.333
  0.366  0.634  0.000  0.000  0.000
  0.000  0.000  0.629  0.037  0.333
    occupations:
  0.447  0.000  0.000  0.000  0.000
  0.000  0.579  0.000  0.000  0.000
  0.000  0.000  0.579  0.000  0.000
  0.000  0.000  0.000  0.447  0.000
  0.000  0.000  0.000  0.000  0.579
atomic mag. moment =     2.249485
atom    5   Tr[ns(na)] (up, down, total) =   4.88171  2.63391  7.51562
   spin  1
    eigenvalues: 
  0.969  0.969  0.969  0.987  0.987
    eigenvectors:
  0.000  0.000  0.000  0.750  0.250
  0.000  0.064  0.936  0.000  0.000
  1.000  0.000  0.000  0.000  0.000
  0.000  0.000  0.000  0.250  0.750
  0.000  0.936  0.064  0.000  0.000
    occupations:
  0.987  0.000  0.000  0.000  0.000
  0.000  0.969  0.000  0.000  0.000
  0.000  0.000  0.969  0.000  0.000
  0.000  0.000  0.000  0.987  0.000
  0.000  0.000  0.000  0.000  0.969
   spin  2
    eigenvalues: 
  0.447  0.447  0.580  0.580  0.580
    eigenvectors:
  0.250  0.750  0.000  0.000  0.000
  0.000  0.000  0.072  0.928  0.000
  0.000  0.000  0.000  0.000  1.000
  0.750  0.250  0.000  0.000  0.000
  0.000  0.000  0.928  0.072  0.000
    occupations:
  0.447  0.000  0.000  0.000  0.000
  0.000  0.580  0.000  0.000  0.000
  0.000  0.000  0.580  0.000  0.000
  0.000  0.000  0.000  0.447  0.000
  0.000  0.000  0.000  0.000  0.580
atomic mag. moment =     2.247806
atom    6   Tr[ns(na)] (up, down, total) =   4.88171  2.63391  7.51562
   spin  1
    eigenvalues: 
  0.969  0.969  0.969  0.987  0.987
    eigenvectors:
  0.000  0.000  0.000  0.750  0.250
  1.000  0.000  0.000  0.000  0.000
  0.000  0.361  0.639  0.000  0.000
  0.000  0.000  0.000  0.250  0.750
  0.000  0.639  0.361  0.000  0.000
    occupations:
  0.987  0.000  0.000  0.000  0.000
  0.000  0.969  0.000  0.000  0.000
  0.000  0.000  0.969  0.000  0.000
  0.000  0.000  0.000  0.987  0.000
  0.000  0.000  0.000  0.000  0.969
   spin  2
    eigenvalues: 
  0.447  0.447  0.580  0.580  0.580
    eigenvectors:
  0.250  0.750  0.000  0.000  0.000
  0.000  0.000  0.000  0.000  1.000
  0.000  0.000  0.368  0.632  0.000
  0.750  0.250  0.000  0.000  0.000
  0.000  0.000  0.632  0.368  0.000
    occupations:
  0.447  0.000  0.000  0.000  0.000
  0.000  0.580  0.000  0.000  0.000
  0.000  0.000  0.580  0.000  0.000
  0.000  0.000  0.000  0.447  0.000
  0.000  0.000  0.000  0.000  0.580
atomic mag. moment =     2.247806
atom    7   Tr[ns(na)] (up, down, total) =   4.88171  2.63391  7.51562
   spin  1
    eigenvalues: 
  0.969  0.969  0.969  0.987  0.987
    eigenvectors:
  0.000  0.000  0.000  0.000  1.000
  0.000  0.241  0.759  0.000  0.000
  0.000  0.759  0.241  0.000  0.000
  0.000  0.000  0.000  1.000  0.000
  1.000  0.000  0.000  0.000  0.000
    occupations:
  0.987  0.000  0.000  0.000  0.000
  0.000  0.969  0.000  0.000  0.000
  0.000  0.000  0.969  0.000  0.000
  0.000  0.000  0.000  0.987  0.000
  0.000  0.000  0.000  0.000  0.969
   spin  2
    eigenvalues: 
  0.447  0.447  0.580  0.580  0.580
    eigenvectors:
  1.000  0.000  0.000  0.000  0.000
  0.000  0.000  0.236  0.764  0.000
  0.000  0.000  0.764  0.236  0.000
  0.000  1.000  0.000  0.000  0.000
  0.000  0.000  0.000  0.000  1.000
    occupations:
  0.447  0.000  0.000  0.000  0.000
  0.000  0.580  0.000  0.000  0.000
  0.000  0.000  0.580  0.000  0.000
  0.000  0.000  0.000  0.447  0.000
  0.000  0.000  0.000  0.000  0.580
atomic mag. moment =     2.247806
atom    8   Tr[ns(na)] (up, down, total) =   4.88146  2.63198  7.51344
   spin  1
    eigenvalues: 
  0.969  0.969  0.969  0.987  0.987
    eigenvectors:
  0.000  0.000  0.000  0.676  0.324
  0.662  0.005  0.333  0.000  0.000
  0.121  0.546  0.333  0.000  0.000
  0.000  0.000  0.000  0.324  0.676
  0.217  0.450  0.333  0.000  0.000
    occupations:
  0.987  0.000  0.000  0.000  0.000
  0.000  0.969  0.000  0.000  0.000
  0.000  0.000  0.969  0.000  0.000
  0.000  0.000  0.000  0.987  0.000
  0.000  0.000  0.000  0.000  0.969
   spin  2
    eigenvalues: 
  0.447  0.447  0.579  0.579  0.579
    eigenvectors:
  0.636  0.364  0.000  0.000  0.000
  0.000  0.000  0.662  0.005  0.333
  0.000  0.000  0.122  0.545  0.333
  0.364  0.636  0.000  0.000  0.000
  0.000  0.000  0.216  0.450  0.333
    occupations:
  0.447  0.000  0.000  0.000  0.000
  0.000  0.579  0.000  0.000  0.000
  0.000  0.000  0.579  0.000  0.000
  0.000  0.000  0.000  0.447  0.000
  0.000  0.000  0.000  0.000  0.579
atomic mag. moment =     2.249485
N of occupied +U levels =   60.101773
 --- exit write_ns ---
 --- in v_hubbard ---
Hubbard energy    0.0276
 -------
 
     Magnetic moment per site:
     atom:    1    charge:    6.4746    magn:    2.5307    constr:    0.0000
     atom:    2    charge:    6.4780    magn:    2.5238    constr:    0.0000
     atom:    3    charge:    6.4780    magn:    2.5238    constr:    0.0000
     atom:    4    charge:    6.4780    magn:    2.5238    constr:    0.0000
     atom:    5    charge:    6.4778    magn:    2.5241    constr:    0.0000
     atom:    6    charge:    6.4778    magn:    2.5241    constr:    0.0000
     atom:    7    charge:    6.4778    magn:    2.5241    constr:    0.0000
     atom:    8    charge:    6.4780    magn:    2.5238    constr:    0.0000

     total cpu time spent up to now is       23.1 secs

     total energy              =    -446.38670668 Ry
     Harris-Foulkes estimate   =    -446.38670762 Ry
     estimated scf accuracy    <       0.00001296 Ry

     total magnetization       =    19.55 Bohr mag/cell
     absolute magnetization    =    20.99 Bohr mag/cell

     iteration #  4     ecut=    30.00 Ry     beta=0.30
     Davidson diagonalization with overlap
     ethr =  2.03E-08,  avg # of iterations =  2.8
 --- enter write_ns ---
 LDA+U parameters:
U( 1)     =  0.00000000
alpha( 1) =  0.05000000
U( 2)     =  0.00000000
alpha( 2) =  0.00000000
atom    1   Tr[ns(na)] (up, down, total) =   4.88335  2.61703  7.50038
   spin  1
    eigenvalues: 
  0.969  0.969  0.969  0.988  0.988
    eigenvectors:
  0.000  0.000  0.000  0.478  0.522
  0.067  0.396  0.537  0.000  0.000
  0.341  0.252  0.407  0.000  0.000
  0.000  0.000  0.000  0.522  0.478
  0.592  0.352  0.056  0.000  0.000
    occupations:
  0.988  0.000  0.000  0.000  0.000
  0.000  0.969  0.000  0.000  0.000
  0.000  0.000  0.969  0.000  0.000
  0.000  0.000  0.000  0.988  0.000
  0.000  0.000  0.000  0.000  0.969
   spin  2
    eigenvalues: 
  0.444  0.444  0.576  0.576  0.576
    eigenvectors:
  0.552  0.448  0.000  0.000  0.000
  0.000  0.000  0.071  0.310  0.619
  0.000  0.000  0.341  0.309  0.350
  0.448  0.552  0.000  0.000  0.000
  0.000  0.000  0.588  0.381  0.031
    occupations:
  0.444  0.000  0.000  0.000  0.000
  0.000  0.576  0.000  0.000  0.000
  0.000  0.000  0.576  0.000  0.000
  0.000  0.000  0.000  0.444  0.000
  0.000  0.000  0.000  0.000  0.576
atomic mag. moment =     2.266312
atom    2   Tr[ns(na)] (up, down, total) =   4.88164  2.63362  7.51526
   spin  1
    eigenvalues: 
  0.969  0.969  0.969  0.987  0.987
    eigenvectors:
  0.000  0.000  0.000  0.584  0.416
  0.455  0.212  0.333  0.000  0.000
  0.004  0.663  0.333  0.000  0.000
  0.000  0.000  0.000  0.416  0.584
  0.541  0.125  0.333  0.000  0.000
    occupations:
  0.987  0.000  0.000  0.000  0.000
  0.000  0.969  0.000  0.000  0.000
  0.000  0.000  0.969  0.000  0.000
  0.000  0.000  0.000  0.987  0.000
  0.000  0.000  0.000  0.000  0.969
   spin  2
    eigenvalues: 
  0.447  0.447  0.580  0.580  0.580
    eigenvectors:
  0.546  0.454  0.000  0.000  0.000
  0.000  0.000  0.486  0.181  0.333
  0.000  0.000  0.000  0.666  0.333
  0.454  0.546  0.000  0.000  0.000
  0.000  0.000  0.514  0.153  0.333
    occupations:
  0.447  0.000  0.000  0.000  0.000
  0.000  0.580  0.000  0.000  0.000
  0.000  0.000  0.580  0.000  0.000
  0.000  0.000  0.000  0.447  0.000
  0.000  0.000  0.000  0.000  0.580
atomic mag. moment =     2.248025
atom    3   Tr[ns(na)] (up, down, total) =   4.88164  2.63362  7.51526
   spin  1
    eigenvalues: 
  0.969  0.969  0.969  0.987  0.987
    eigenvectors:
  0.000  0.000  0.000  0.513  0.487
  0.014  0.652  0.333  0.000  0.000
  0.577  0.090  0.333  0.000  0.000
  0.000  0.000  0.000  0.487  0.513
  0.409  0.258  0.333  0.000  0.000
    occupations:
  0.987  0.000  0.000  0.000  0.000
  0.000  0.969  0.000  0.000  0.000
  0.000  0.000  0.969  0.000  0.000
  0.000  0.000  0.000  0.987  0.000
  0.000  0.000  0.000  0.000  0.969
   spin  2
    eigenvalues: 
  0.447  0.447  0.580  0.580  0.580
    eigenvectors:
  0.570  0.430  0.000  0.000  0.000
  0.000  0.000  0.010  0.656  0.333
  0.000  0.000  0.566  0.101  0.333
  0.430  0.570  0.000  0.000  0.000
  0.000  0.000  0.424  0.243  0.333
    occupations:
  0.447  0.000  0.000  0.000  0.000
  0.000  0.580  0.000  0.000  0.000
  0.000  0.000  0.580  0.000  0.000
  0.000  0.000  0.000  0.447  0.000
  0.000  0.000  0.000  0.000  0.580
atomic mag. moment =     2.248025
atom    4   Tr[ns(na)] (up, down, total) =   4.88164  2.63362  7.51526
   spin  1
    eigenvalues: 
  0.969  0.969  0.969  0.987  0.987
    eigenvectors:
  0.000  0.000  0.000  0.586  0.414
  0.054  0.613  0.333  0.000  0.000
  0.316  0.351  0.333  0.000  0.000
  0.000  0.000  0.000  0.414  0.586
  0.630  0.036  0.333  0.000  0.000
    occupations:
  0.987  0.000  0.000  0.000  0.000
  0.000  0.969  0.000  0.000  0.000
  0.000  0.000  0.969  0.000  0.000
  0.000  0.000  0.000  0.987  0.000
  0.000  0.000  0.000  0.000  0.969
   spin  2
    eigenvalues: 
  0.447  0.447  0.580  0.580  0.580
    eigenvectors:
  0.603  0.397  0.000  0.000  0.000
  0.000  0.000  0.058  0.608  0.333
  0.000  0.000  0.308  0.359  0.333
  0.397  0.603  0.000  0.000  0.000
  0.000  0.000  0.634  0.033  0.333
    occupations:
  0.447  0.000  0.000  0.000  0.000
  0.000  0.580  0.000  0.000  0.000
  0.000  0.000  0.580  0.000  0.000
  0.000  0.000  0.000  0.447  0.000
  0.000  0.000  0.000  0.000  0.580
atomic mag. moment =     2.248025
atom    5   Tr[ns(na)] (up, down, total) =   4.88145  2.63199  7.51345
   spin  1
    eigenvalues: 
  0.969  0.969  0.969  0.987  0.987
    eigenvectors:
  0.000  0.000  0.000  0.750  0.250
  0.000  0.057  0.943  0.000  0.000
  1.000  0.000  0.000  0.000  0.000
  0.000  0.000  0.000  0.250  0.750
  0.000  0.943  0.057  0.000  0.000
    occupations:
  0.987  0.000  0.000  0.000  0.000
  0.000  0.969  0.000  0.000  0.000
  0.000  0.000  0.969  0.000  0.000
  0.000  0.000  0.000  0.987  0.000
  0.000  0.000  0.000  0.000  0.969
   spin  2
    eigenvalues: 
  0.447  0.447  0.579  0.579  0.580
    eigenvectors:
  0.250  0.750  0.000  0.000  0.000
  0.000  0.000  0.061  0.939  0.000
  0.000  0.000  0.000  0.000  1.000
  0.750  0.250  0.000  0.000  0.000
  0.000  0.000  0.939  0.061  0.000
    occupations:
  0.447  0.000  0.000  0.000  0.000
  0.000  0.579  0.000  0.000  0.000
  0.000  0.000  0.580  0.000  0.000
  0.000  0.000  0.000  0.447  0.000
  0.000  0.000  0.000  0.000  0.579
atomic mag. moment =     2.249464
atom    6   Tr[ns(na)] (up, down, total) =   4.88145  2.63199  7.51345
   spin  1
    eigenvalues: 
  0.969  0.969  0.969  0.987  0.987
    eigenvectors:
  0.000  0.000  0.000  0.750  0.250
  1.000  0.000  0.000  0.000  0.000
  0.000  0.354  0.646  0.000  0.000
  0.000  0.000  0.000  0.250  0.750
  0.000  0.646  0.354  0.000  0.000
    occupations:
  0.987  0.000  0.000  0.000  0.000
  0.000  0.969  0.000  0.000  0.000
  0.000  0.000  0.969  0.000  0.000
  0.000  0.000  0.000  0.987  0.000
  0.000  0.000  0.000  0.000  0.969
   spin  2
    eigenvalues: 
  0.447  0.447  0.579  0.579  0.580
    eigenvectors:
  0.250  0.750  0.000  0.000  0.000
  0.000  0.000  0.000  0.000  1.000
  0.000  0.000  0.336  0.664  0.000
  0.750  0.250  0.000  0.000  0.000
  0.000  0.000  0.664  0.336  0.000
    occupations:
  0.447  0.000  0.000  0.000  0.000
  0.000  0.580  0.000  0.000  0.000
  0.000  0.000  0.579  0.000  0.000
  0.000  0.000  0.000  0.447  0.000
  0.000  0.000  0.000  0.000  0.579
atomic mag. moment =     2.249464
atom    7   Tr[ns(na)] (up, down, total) =   4.88145  2.63199  7.51345
   spin  1
    eigenvalues: 
  0.969  0.969  0.969  0.987  0.987
    eigenvectors:
  0.000  0.000  0.000  0.000  1.000
  0.000  0.223  0.777  0.000  0.000
  0.000  0.777  0.223  0.000  0.000
  0.000  0.000  0.000  1.000  0.000
  1.000  0.000  0.000  0.000  0.000
    occupations:
  0.987  0.000  0.000  0.000  0.000
  0.000  0.969  0.000  0.000  0.000
  0.000  0.000  0.969  0.000  0.000
  0.000  0.000  0.000  0.987  0.000
  0.000  0.000  0.000  0.000  0.969
   spin  2
    eigenvalues: 
  0.447  0.447  0.579  0.579  0.580
    eigenvectors:
  1.000  0.000  0.000  0.000  0.000
  0.000  0.000  0.287  0.713  0.000
  0.000  0.000  0.713  0.287  0.000
  0.000  1.000  0.000  0.000  0.000
  0.000  0.000  0.000  0.000  1.000
    occupations:
  0.447  0.000  0.000  0.000  0.000
  0.000  0.579  0.000  0.000  0.000
  0.000  0.000  0.579  0.000  0.000
  0.000  0.000  0.000  0.447  0.000
  0.000  0.000  0.000  0.000  0.580
atomic mag. moment =     2.249464
atom    8   Tr[ns(na)] (up, down, total) =   4.88164  2.63362  7.51526
   spin  1
    eigenvalues: 
  0.969  0.969  0.969  0.987  0.987
    eigenvectors:
  0.000  0.000  0.000  0.632  0.368
  0.663  0.004  0.333  0.000  0.000
  0.124  0.543  0.333  0.000  0.000
  0.000  0.000  0.000  0.368  0.632
  0.213  0.453  0.333  0.000  0.000
    occupations:
  0.987  0.000  0.000  0.000  0.000
  0.000  0.969  0.000  0.000  0.000
  0.000  0.000  0.969  0.000  0.000
  0.000  0.000  0.000  0.987  0.000
  0.000  0.000  0.000  0.000  0.969
   spin  2
    eigenvalues: 
  0.447  0.447  0.580  0.580  0.580
    eigenvectors:
  0.566  0.434  0.000  0.000  0.000
  0.000  0.000  0.661  0.005  0.333
  0.000  0.000  0.118  0.549  0.333
  0.434  0.566  0.000  0.000  0.000
  0.000  0.000  0.221  0.446  0.333
    occupations:
  0.447  0.000  0.000  0.000  0.000
  0.000  0.580  0.000  0.000  0.000
  0.000  0.000  0.580  0.000  0.000
  0.000  0.000  0.000  0.447  0.000
  0.000  0.000  0.000  0.000  0.580
atomic mag. moment =     2.248025
N of occupied +U levels =   60.101755
 --- exit write_ns ---
 --- in v_hubbard ---
Hubbard energy    0.0276
 -------
 
     Magnetic moment per site:
     atom:    1    charge:    6.4739    magn:    2.5403    constr:    0.0000
     atom:    2    charge:    6.4781    magn:    2.5228    constr:    0.0000
     atom:    3    charge:    6.4781    magn:    2.5228    constr:    0.0000
     atom:    4    charge:    6.4781    magn:    2.5228    constr:    0.0000
     atom:    5    charge:    6.4777    magn:    2.5236    constr:    0.0000
     atom:    6    charge:    6.4777    magn:    2.5236    constr:    0.0000
     atom:    7    charge:    6.4777    magn:    2.5236    constr:    0.0000
     atom:    8    charge:    6.4781    magn:    2.5228    constr:    0.0000

     total cpu time spent up to now is       28.0 secs

     total energy              =    -446.38671560 Ry
     Harris-Foulkes estimate   =    -446.38671361 Ry
     estimated scf accuracy    <       0.00000639 Ry

     total magnetization       =    19.55 Bohr mag/cell
     absolute magnetization    =    20.99 Bohr mag/cell

     iteration #  5     ecut=    30.00 Ry     beta=0.30
     Davidson diagonalization with overlap
     ethr =  9.98E-09,  avg # of iterations =  1.2
 --- enter write_ns ---
 LDA+U parameters:
U( 1)     =  0.00000000
alpha( 1) =  0.05000000
U( 2)     =  0.00000000
alpha( 2) =  0.00000000
atom    1   Tr[ns(na)] (up, down, total) =   4.88440  2.61409  7.49849
   spin  1
    eigenvalues: 
  0.970  0.970  0.970  0.988  0.988
    eigenvectors:
  0.000  0.000  0.000  0.621  0.379
  0.070  0.335  0.595  0.000  0.000
  0.336  0.295  0.369  0.000  0.000
  0.000  0.000  0.000  0.379  0.621
  0.593  0.370  0.037  0.000  0.000
    occupations:
  0.988  0.000  0.000  0.000  0.000
  0.000  0.970  0.000  0.000  0.000
  0.000  0.000  0.970  0.000  0.000
  0.000  0.000  0.000  0.988  0.000
  0.000  0.000  0.000  0.000  0.970
   spin  2
    eigenvalues: 
  0.444  0.444  0.576  0.576  0.576
    eigenvectors:
  0.536  0.464  0.000  0.000  0.000
  0.000  0.000  0.072  0.396  0.533
  0.000  0.000  0.352  0.239  0.409
  0.464  0.536  0.000  0.000  0.000
  0.000  0.000  0.576  0.365  0.059
    occupations:
  0.444  0.000  0.000  0.000  0.000
  0.000  0.576  0.000  0.000  0.000
  0.000  0.000  0.576  0.000  0.000
  0.000  0.000  0.000  0.444  0.000
  0.000  0.000  0.000  0.000  0.576
atomic mag. moment =     2.270317
atom    2   Tr[ns(na)] (up, down, total) =   4.88161  2.63352  7.51513
   spin  1
    eigenvalues: 
  0.969  0.969  0.969  0.987  0.987
    eigenvectors:
  0.000  0.000  0.000  0.699  0.301
  0.423  0.244  0.333  0.000  0.000
  0.010  0.656  0.333  0.000  0.000
  0.000  0.000  0.000  0.301  0.699
  0.567  0.100  0.333  0.000  0.000
    occupations:
  0.987  0.000  0.000  0.000  0.000
  0.000  0.969  0.000  0.000  0.000
  0.000  0.000  0.969  0.000  0.000
  0.000  0.000  0.000  0.987  0.000
  0.000  0.000  0.000  0.000  0.969
   spin  2
    eigenvalues: 
  0.447  0.447  0.579  0.579  0.580
    eigenvectors:
  0.628  0.372  0.000  0.000  0.000
  0.000  0.000  0.391  0.276  0.333
  0.000  0.000  0.020  0.647  0.333
  0.372  0.628  0.000  0.000  0.000
  0.000  0.000  0.589  0.078  0.333
    occupations:
  0.447  0.000  0.000  0.000  0.000
  0.000  0.580  0.000  0.000  0.000
  0.000  0.000  0.580  0.000  0.000
  0.000  0.000  0.000  0.447  0.000
  0.000  0.000  0.000  0.000  0.580
atomic mag. moment =     2.248094
atom    3   Tr[ns(na)] (up, down, total) =   4.88161  2.63352  7.51513
   spin  1
    eigenvalues: 
  0.969  0.969  0.969  0.987  0.987
    eigenvectors:
[...]
    11.7137  11.7137  11.8374  11.8374  11.8445  11.8466  11.8466  11.8466
    12.7366  12.7366  12.7366  12.9863  12.9863  12.9863  12.9925  12.9925
    12.9925  13.5706  13.5706  13.5706  13.5793  13.5793  13.5793  19.8687
    19.8788  19.8788

     occupation numbers 
     1.0000   1.0000   1.0000   1.0000   1.0000   1.0000   1.0000   1.0000
     1.0000   1.0000   1.0000   1.0000   1.0000   1.0000   1.0000   1.0000
     1.0000   1.0000   1.0000   1.0000   1.0000   1.0000   1.0000   1.0000
     1.0000   1.0000   1.0000   1.0000   1.0000   1.0000   1.0000   1.0000
     0.8963   0.8963   0.8963  -0.0349  -0.0349  -0.0349  -0.0340  -0.0340
    -0.0340   0.0000   0.0000   0.0000   0.0000   0.0000   0.0000   0.0000
     0.0000   0.0000

          k = 0.0000-0.2500 0.2500 (  1773 PWs)   bands (ev):

     5.3651   8.0217   8.3797   8.3832   8.3840   8.3861   8.4096   8.4220
     8.4584   9.5554   9.5557   9.5560   9.5561   9.6085   9.8422  10.3152
    10.4502  10.6091  10.7907  11.0922  11.0931  11.0942  11.0967  11.4659
    11.4773  11.5439  11.6744  11.6766  11.6777  11.6792  11.6878  11.8066
    11.8674  12.0972  12.2117  12.2174  12.2181  12.2198  12.2680  12.5588
    12.7731  12.9517  14.6097  14.6124  14.6134  14.6154  15.2748  19.9871
    20.8482  20.9796

     occupation numbers 
     1.0000   1.0000   1.0000   1.0000   1.0000   1.0000   1.0000   1.0000
     1.0000   1.0000   1.0000   1.0000   1.0000   1.0000   1.0000   1.0000
     1.0000   1.0000   1.0000   1.0000   1.0000   1.0000   1.0000   1.0000
     1.0000   1.0000   1.0000   1.0000   1.0000   1.0000   1.0000   1.0000
     1.0000   1.0000   1.0000   1.0000   1.0000   1.0000   1.0000   1.0124
     0.7279  -0.0281   0.0000   0.0000   0.0000   0.0000   0.0000   0.0000
     0.0000   0.0000

          k = 0.0000 0.5000-0.5000 (  1766 PWs)   bands (ev):

     6.9479   6.9490   8.7645   8.7677   8.9247   8.9250   8.9250   8.9318
     9.2807   9.2842   9.5716   9.5731   9.5738   9.5744   9.9524   9.9545
    10.1976  10.1982  10.1993  10.1995  10.4029  10.4054  10.8490  10.8516
    11.4356  11.4387  11.5039  11.5078  11.6077  11.6092  11.6130  11.6141
    11.6197  11.6229  11.7333  11.7376  12.0238  12.0332  12.0342  12.0342
    12.8589  12.8655  15.0293  15.0312  15.0355  15.0368  17.9579  17.9600
    20.4743  20.4807

     occupation numbers 
     1.0000   1.0000   1.0000   1.0000   1.0000   1.0000   1.0000   1.0000
     1.0000   1.0000   1.0000   1.0000   1.0000   1.0000   1.0000   1.0000
     1.0000   1.0000   1.0000   1.0000   1.0000   1.0000   1.0000   1.0000
     1.0000   1.0000   1.0000   1.0000   1.0000   1.0000   1.0000   1.0000
     1.0000   1.0000   1.0000   1.0000   1.0000   1.0000   1.0000   1.0000
     0.2234   0.1911   0.0000   0.0000   0.0000   0.0000   0.0000   0.0000
     0.0000   0.0000

          k =-0.2500 0.7500-0.5000 (  1758 PWs)   bands (ev):

     6.5004   8.0405   8.0461   8.8616   8.8863   8.8905   8.8926   8.8958
     9.0138   9.5065   9.6066   9.7116   9.7123   9.7815   9.7819  10.1517
    10.1596  10.1662  10.1665  10.1976  10.2463  10.2590  10.2616  10.9784
    11.4050  11.4619  11.4926  11.4941  11.5262  11.5271  11.7436  11.7680
    11.7785  11.8205  11.8890  11.8904  12.0152  12.0848  12.5249  12.5274
    12.5845  12.7121  12.7141  14.7138  16.1392  16.1438  17.6737  18.3325
    20.2199  21.5569

     occupation numbers 
     1.0000   1.0000   1.0000   1.0000   1.0000   1.0000   1.0000   1.0000
     1.0000   1.0000   1.0000   1.0000   1.0000   1.0000   1.0000   1.0000
     1.0000   1.0000   1.0000   1.0000   1.0000   1.0000   1.0000   1.0000
     1.0000   1.0000   1.0000   1.0000   1.0000   1.0000   1.0000   1.0000
     1.0000   1.0000   1.0000   1.0000   1.0000   1.0000   1.0056   1.0060
     1.0200   0.9697   0.9649   0.0000   0.0000   0.0000   0.0000   0.0000
     0.0000   0.0000

          k = 0.0000 0.0000 0.5000 (  1773 PWs)   bands (ev):

     5.9578   8.3893   8.3957   8.3957   8.3989   8.6293   8.6801   8.8144
     8.8180   9.4148   9.4148   9.9654   9.9661   9.9661   9.9666  10.3327
    10.3358  10.3358  10.3360  10.5023  10.5023  10.7908  10.8612  10.8612
    11.1604  11.4548  11.4565  11.4565  11.4574  11.7991  11.8036  11.8559
    11.8630  11.8755  11.9512  11.9512  12.3927  12.5048  12.5058  12.5058
    12.5093  13.3112  13.3130  13.3173  13.3173  16.8327  16.8327  17.6179
    20.1623  20.1630

     occupation numbers 
     1.0000   1.0000   1.0000   1.0000   1.0000   1.0000   1.0000   1.0000
     1.0000   1.0000   1.0000   1.0000   1.0000   1.0000   1.0000   1.0000
     1.0000   1.0000   1.0000   1.0000   1.0000   1.0000   1.0000   1.0000
     1.0000   1.0000   1.0000   1.0000   1.0000   1.0000   1.0000   1.0000
     1.0000   1.0000   1.0000   1.0000   1.0001   1.0032   1.0033   1.0033
     1.0037   0.0000   0.0000   0.0000   0.0000   0.0000   0.0000   0.0000
     0.0000   0.0000

          k = 0.0000 0.7500-0.2500 (  1780 PWs)   bands (ev):

     7.4338   7.4377   8.6041   8.6047   8.8790   8.8792   9.2436   9.2456
     9.3217   9.3237   9.6050   9.6067   9.7307   9.7317  10.0627  10.0628
    10.2677  10.2701  10.3070  10.3087  10.4323  10.4328  10.9165  10.9191
    11.0814  11.0837  11.1929  11.1943  11.3246  11.3277  11.5465  11.5506
    11.8297  11.8352  11.8775  11.8841  12.0891  12.0931  12.1305  12.1335
    12.3862  12.3916  13.3398  13.3454  15.1070  15.1084  17.7610  17.7615
    21.9255  21.9269

     occupation numbers 
     1.0000   1.0000   1.0000   1.0000   1.0000   1.0000   1.0000   1.0000
     1.0000   1.0000   1.0000   1.0000   1.0000   1.0000   1.0000   1.0000
     1.0000   1.0000   1.0000   1.0000   1.0000   1.0000   1.0000   1.0000
     1.0000   1.0000   1.0000   1.0000   1.0000   1.0000   1.0000   1.0000
     1.0000   1.0000   1.0000   1.0000   1.0000   1.0000   1.0000   1.0000
     1.0000   1.0001   0.0000   0.0000   0.0000   0.0000   0.0000   0.0000
     0.0000   0.0000

          k = 0.5000-0.5000 0.5000 (  1772 PWs)   bands (ev):

     7.9192   7.9306   7.9306   7.9306   9.4067   9.4067   9.4067   9.4074
     9.4074   9.4074   9.4106   9.4106   9.7797   9.7797   9.7797   9.7810
     9.7810   9.7810   9.7813   9.7813   9.8050   9.8051   9.8051   9.8051
    11.6750  11.6750  11.6820  11.6820  11.6820  11.6827  11.6827  11.6827
    12.1244  12.1244  12.1244  12.1276  12.1276  12.1299  12.1299  12.1299
    12.7411  12.7411  12.7411  12.7458  19.8077  19.8077  19.8077  19.8115
    19.8115  19.8178

     occupation numbers 
     1.0000   1.0000   1.0000   1.0000   1.0000   1.0000   1.0000   1.0000
     1.0000   1.0000   1.0000   1.0000   1.0000   1.0000   1.0000   1.0000
     1.0000   1.0000   1.0000   1.0000   1.0000   1.0000   1.0000   1.0000
     1.0000   1.0000   1.0000   1.0000   1.0000   1.0000   1.0000   1.0000
     1.0000   1.0000   1.0000   1.0000   1.0000   1.0000   1.0000   1.0000
     0.8792   0.8792   0.8792   0.8600   0.0000   0.0000   0.0000   0.0000
     0.0000   0.0000

          k = 0.0000 0.0000-1.0000 (  1830 PWs)   bands (ev):

     8.4210   8.4286   8.4286   8.4286   8.4392   8.4392   9.6642   9.6642
     9.6642   9.6661   9.6661   9.6661   9.9096   9.9096   9.9107   9.9119
     9.9119   9.9119  10.9005  10.9005  10.9005  10.9054  10.9054  10.9054
    10.9061  10.9061  10.9061  10.9067  10.9067  10.9067  11.5766  11.5766
    11.5766  11.5821  11.5823  11.5823  11.8725  11.8725  11.8797  11.8797
    12.9583  12.9583  12.9643  12.9698  12.9698  12.9698  21.3166  21.3183
    21.3189  21.3192

     occupation numbers 
     1.0000   1.0000   1.0000   1.0000   1.0000   1.0000   1.0000   1.0000
     1.0000   1.0000   1.0000   1.0000   1.0000   1.0000   1.0000   1.0000
     1.0000   1.0000   1.0000   1.0000   1.0000   1.0000   1.0000   1.0000
     1.0000   1.0000   1.0000   1.0000   1.0000   1.0000   1.0000   1.0000
     1.0000   1.0000   1.0000   1.0000   1.0000   1.0000   1.0000   1.0000
    -0.0316  -0.0316  -0.0337  -0.0349  -0.0349  -0.0349   0.0000   0.0000
     0.0000   0.0000

 ------ SPIN DOWN ----------


          k = 0.0000 0.0000 0.0000 (  1745 PWs)   bands (ev):

     4.8034   9.6056   9.6150   9.6150   9.6174   9.6174   9.6174  10.2536
    10.2536  11.6843  11.6843  11.6843  11.6905  11.6905  11.6905  12.9489
    12.9489  12.9489  13.5455  13.5455  13.5455  13.5532  13.5532  13.5532
    14.7301  14.7311  14.7311  14.7311  14.7332  14.7332  14.8445  14.8445
    15.0989  15.0990  15.0990  15.0990  15.1025  15.1025  15.5690  15.5690
    15.5690  15.8631  15.8631  15.8631  15.8648  15.8648  15.8648  21.4952
    21.4990  21.4996

     occupation numbers 
     1.0000   1.0000   1.0000   1.0000   1.0000   1.0000   1.0000   1.0000
     1.0000   1.0000   1.0000   1.0000   1.0000   1.0000   1.0000  -0.0262
    -0.0262  -0.0262   0.0000   0.0000   0.0000   0.0000   0.0000   0.0000
     0.0000   0.0000   0.0000   0.0000   0.0000   0.0000   0.0000   0.0000
     0.0000   0.0000   0.0000   0.0000   0.0000   0.0000   0.0000   0.0000
     0.0000   0.0000   0.0000   0.0000   0.0000   0.0000   0.0000   0.0000
     0.0000   0.0000

          k = 0.0000-0.2500 0.2500 (  1773 PWs)   bands (ev):

     5.4307   9.0232   9.8388   9.8423   9.8435   9.8482  10.0464  10.4958
    10.5116  11.7412  11.7440  11.7447  11.7463  11.8582  12.0975  12.4217
    12.5964  12.5990  12.5995  12.6007  12.6838  12.7487  12.8886  13.3081
    14.3120  14.6557  14.6618  14.6622  14.6628  14.6650  14.6688  14.7258
    14.8617  14.8977  15.0410  15.1944  15.1947  15.1947  15.1973  15.3471
    15.6116  15.8199  16.5445  16.5446  16.5451  16.5453  16.6469  21.4948
    21.5213  22.2841

     occupation numbers 
     1.0000   1.0000   1.0000   1.0000   1.0000   1.0000   1.0000   1.0000
     1.0000   1.0000   1.0000   1.0000   1.0000   1.0000   1.0000   1.0002
     1.0240   1.0249   1.0251   1.0254   1.0174   0.8479   0.0952   0.0000
     0.0000   0.0000   0.0000   0.0000   0.0000   0.0000   0.0000   0.0000
     0.0000   0.0000   0.0000   0.0000   0.0000   0.0000   0.0000   0.0000
     0.0000   0.0000   0.0000   0.0000   0.0000   0.0000   0.0000   0.0000
     0.0000   0.0000

          k = 0.0000 0.5000-0.5000 (  1766 PWs)   bands (ev):

     7.1305   7.1312  10.1859  10.1871  10.1891  10.2007  10.7252  10.7336
    11.2219  11.2313  11.5976  11.5984  11.6040  11.6085  12.0362  12.0376
    12.0397  12.0477  12.2862  12.2919  12.5832  12.5884  13.2310  13.2363
    13.9483  13.9529  14.2496  14.2533  14.5253  14.5281  14.5754  14.5758
    14.5777  14.5800  14.9291  14.9320  15.1184  15.1184  15.1193  15.1221
    15.7143  15.7166  17.0548  17.0557  17.0559  17.0566  19.0376  19.0396
    21.6957  21.6999

     occupation numbers 
     1.0000   1.0000   1.0000   1.0000   1.0000   1.0000   1.0000   1.0000
     1.0000   1.0000   1.0000   1.0000   1.0000   1.0000   1.0000   1.0000
     1.0000   1.0000   1.0000   1.0000   1.0196   1.0213  -0.0001   0.0000
     0.0000   0.0000   0.0000   0.0000   0.0000   0.0000   0.0000   0.0000
     0.0000   0.0000   0.0000   0.0000   0.0000   0.0000   0.0000   0.0000
     0.0000   0.0000   0.0000   0.0000   0.0000   0.0000   0.0000   0.0000
     0.0000   0.0000

          k =-0.2500 0.7500-0.5000 (  1758 PWs)   bands (ev):

     6.6072   8.5403   8.5461   9.9796  10.5433  10.5494  10.7786  10.7827
    10.9906  11.6183  11.6321  11.6598  11.6651  11.8054  11.9376  12.0262
    12.0287  12.2303  12.2341  12.3662  12.3671  12.5021  12.5584  13.3139
    14.0284  14.2538  14.2542  14.4346  14.4638  14.4648  14.6296  14.7598
    14.8644  14.9663  15.0321  15.0328  15.0508  15.0939  15.2933  15.2936
    15.3383  15.3397  15.3578  16.8443  17.7387  17.7411  19.0300  19.4691
    21.5535  22.7206

     occupation numbers 
     1.0000   1.0000   1.0000   1.0000   1.0000   1.0000   1.0000   1.0000
     1.0000   1.0000   1.0000   1.0000   1.0000   1.0000   1.0000   1.0000
     1.0000   1.0000   1.0000   1.0000   1.0000   1.0030   1.0123   0.0000
     0.0000   0.0000   0.0000   0.0000   0.0000   0.0000   0.0000   0.0000
     0.0000   0.0000   0.0000   0.0000   0.0000   0.0000   0.0000   0.0000
     0.0000   0.0000   0.0000   0.0000   0.0000   0.0000   0.0000   0.0000
     0.0000   0.0000

          k = 0.0000 0.0000 0.5000 (  1773 PWs)   bands (ev):

     6.0357   9.4617   9.4694   9.4694   9.4747  10.4474  10.4545  10.4744
    10.8756  11.4870  11.4870  12.2337  12.2337  12.2345  12.2393  12.2479
    12.2501  12.2501  12.2544  12.2846  12.2846  12.9287  12.9287  13.3148
    14.1363  14.2268  14.2269  14.2269  14.2288  14.5049  14.5049  14.9198
    14.9215  15.0905  15.1221  15.1244  15.1668  15.2825  15.2835  15.2835
    15.2846  15.6988  15.6993  15.6993  15.6994  18.2471  18.2471  18.6620
    21.5731  21.5740

     occupation numbers 
     1.0000   1.0000   1.0000   1.0000   1.0000   1.0000   1.0000   1.0000
     1.0000   1.0000   1.0000   1.0000   1.0000   1.0000   1.0000   1.0000
     1.0000   1.0000   1.0000   1.0000   1.0000  -0.0043  -0.0043   0.0000
     0.0000   0.0000   0.0000   0.0000   0.0000   0.0000   0.0000   0.0000
     0.0000   0.0000   0.0000   0.0000   0.0000   0.0000   0.0000   0.0000
     0.0000   0.0000   0.0000   0.0000   0.0000   0.0000   0.0000   0.0000
     0.0000   0.0000

          k = 0.0000 0.7500-0.2500 (  1780 PWs)   bands (ev):

     7.6604   7.6638   9.3345   9.3364  10.2718  10.2746  11.0254  11.0334
    11.4492  11.4558  11.5576  11.5583  11.6546  11.6619  12.0187  12.0202
    12.6260  12.6306  12.6503  12.6545  12.6769  12.6771  13.3098  13.3145
    13.8289  13.8332  13.8405  13.8429  13.8593  13.8595  14.1647  14.1682
    14.9116  14.9122  15.0152  15.0172  15.1118  15.1140  15.1434  15.1461
    15.2700  15.2710  15.8299  15.8306  16.8596  16.8610  19.2293  19.2296
    22.9364  22.9377

     occupation numbers 
     1.0000   1.0000   1.0000   1.0000   1.0000   1.0000   1.0000   1.0000
     1.0000   1.0000   1.0000   1.0000   1.0000   1.0000   1.0000   1.0000
     1.0331   1.0340   1.0352   1.0346   1.0239   1.0238   0.0000   0.0000
     0.0000   0.0000   0.0000   0.0000   0.0000   0.0000   0.0000   0.0000
     0.0000   0.0000   0.0000   0.0000   0.0000   0.0000   0.0000   0.0000
     0.0000   0.0000   0.0000   0.0000   0.0000   0.0000   0.0000   0.0000
     0.0000   0.0000

          k = 0.5000-0.5000 0.5000 (  1772 PWs)   bands (ev):

     8.1677   8.1779   8.1779   8.1779  11.3601  11.3601  11.3601  11.3602
    11.3602  11.3602  11.3712  11.3712  11.8726  11.8774  11.8774  11.8774
    11.9980  11.9980  11.9980  11.9992  11.9992  12.0059  12.0059  12.0059
    14.8219  14.8219  14.8219  14.8219  14.8219  14.8219  14.8268  14.8268
    14.8958  14.8958  14.8958  14.8968  14.8968  14.8989  14.8989  14.8989
    15.2695  15.2704  15.2704  15.2704  20.9965  20.9966  20.9974  21.0031
    21.0032  21.0032

     occupation numbers 
     1.0000   1.0000   1.0000   1.0000   1.0000   1.0000   1.0000   1.0000
     1.0000   1.0000   1.0000   1.0000   1.0000   1.0000   1.0000   1.0000
     1.0000   1.0000   1.0000   1.0000   1.0000   1.0000   1.0000   1.0000
     0.0000   0.0000   0.0000   0.0000   0.0000   0.0000   0.0000   0.0000
     0.0000   0.0000   0.0000   0.0000   0.0000   0.0000   0.0000   0.0000
     0.0000   0.0000   0.0000   0.0000   0.0000   0.0000   0.0000   0.0000
     0.0000   0.0000

          k = 0.0000 0.0000-1.0000 (  1830 PWs)   bands (ev):

     8.9791   8.9858   8.9858   8.9858   8.9981   8.9981  11.4336  11.4336
    11.4336  11.4421  11.4421  11.4421  12.4549  12.4549  12.4549  12.4558
    12.4642  12.4642  13.2907  13.2907  13.2907  13.2907  13.2907  13.2907
    13.2912  13.2912  13.2912  13.2998  13.2998  13.2998  14.2205  14.2205
    14.2207  14.2230  14.2230  14.2230  15.1458  15.1458  15.1480  15.1480
    15.6783  15.6795  15.6795  15.6799  15.6799  15.6799  22.3402  22.3422
    22.3422  22.3422

     occupation numbers 
     1.0000   1.0000   1.0000   1.0000   1.0000   1.0000   1.0000   1.0000
     1.0000   1.0000   1.0000   1.0000   1.0007   1.0007   1.0007   1.0007
     1.0009   1.0009   0.0000   0.0000   0.0000   0.0000   0.0000   0.0000
     0.0000   0.0000   0.0000   0.0000   0.0000   0.0000   0.0000   0.0000
     0.0000   0.0000   0.0000   0.0000   0.0000   0.0000   0.0000   0.0000
     0.0000   0.0000   0.0000   0.0000   0.0000   0.0000   0.0000   0.0000
     0.0000   0.0000

     the Fermi energy is    12.8114 ev

!    total energy              =    -446.38671757 Ry
     Harris-Foulkes estimate   =    -446.38671757 Ry
     estimated scf accuracy    <          1.6E-10 Ry

     The total energy is the sum of the following terms:

     one-electron contribution =      55.35404069 Ry
     hartree contribution      =      53.59158510 Ry
     xc contribution           =    -211.58122922 Ry
     ewald contribution        =    -343.77998637 Ry
     Hubbard energy            =       0.02755821 Ry
     smearing contrib. (-TS)   =       0.00131401 Ry

     total magnetization       =    19.55 Bohr mag/cell
     absolute magnetization    =    21.00 Bohr mag/cell

     convergence has been achieved in  11 iterations

     Writing output data file fe.save
 
     init_run     :      1.97s CPU      2.00s WALL (       1 calls)
     electrons    :     56.85s CPU     57.24s WALL (       1 calls)

     Called by init_run:
     wfcinit      :      0.13s CPU      0.13s WALL (       1 calls)
     potinit      :      0.26s CPU      0.28s WALL (       1 calls)

     Called by electrons:
     c_bands      :     37.84s CPU     38.07s WALL (      11 calls)
     sum_band     :     12.60s CPU     12.70s WALL (      11 calls)
     v_of_rho     :      1.59s CPU      1.63s WALL (      12 calls)
     v_h          :      0.04s CPU      0.04s WALL (      12 calls)
     v_xc         :      1.55s CPU      1.59s WALL (      12 calls)
     newd         :      5.06s CPU      5.08s WALL (      12 calls)
     mix_rho      :      0.14s CPU      0.15s WALL (      11 calls)

     Called by c_bands:
     init_us_2    :      0.25s CPU      0.22s WALL (     368 calls)
     cegterg      :     35.91s CPU     36.12s WALL (     176 calls)

     Called by sum_band:
     sum_band:bec :      0.08s CPU      0.09s WALL (     176 calls)
     addusdens    :      7.34s CPU      7.39s WALL (      11 calls)

     Called by *egterg:
     h_psi        :     22.20s CPU     22.36s WALL (     727 calls)
     s_psi        :      1.75s CPU      1.72s WALL (     743 calls)
     g_psi        :      0.16s CPU      0.17s WALL (     551 calls)
     cdiaghg      :      7.10s CPU      7.05s WALL (     711 calls)
     cegterg:over :      1.79s CPU      1.83s WALL (     551 calls)
     cegterg:upda :      1.09s CPU      1.11s WALL (     551 calls)
     cegterg:last :      0.75s CPU      0.77s WALL (     194 calls)

     Called by h_psi:
     h_psi:vloc   :     17.11s CPU     17.20s WALL (     727 calls)
     h_psi:vnl    :      3.55s CPU      3.57s WALL (     727 calls)
     add_vuspsi   :      1.72s CPU      1.73s WALL (     727 calls)
     vhpsi        :      1.48s CPU      1.53s WALL (     727 calls)

     General routines
     calbec       :      3.26s CPU      3.34s WALL (    1822 calls)
     fft          :      0.96s CPU      1.01s WALL (     360 calls)
     ffts         :      0.02s CPU      0.02s WALL (      46 calls)
     fftw         :     16.86s CPU     16.91s WALL (   53604 calls)
     interpolate  :      0.14s CPU      0.15s WALL (      46 calls)
     davcio       :      0.00s CPU      0.01s WALL (      48 calls)
 
     Parallel routines
     fft_scatter  :      4.06s CPU      3.92s WALL (   54010 calls)
     Hubbard U routines
     new_ns       :      0.28s CPU      0.29s WALL (      11 calls)
     vhpsi        :      1.48s CPU      1.53s WALL (     727 calls)
 
     PWSCF        :    59.04s CPU        59.49s WALL

 
   This run was terminated on:  17:44:12  30Jun2014            

=------------------------------------------------------------------------------=
   JOB DONE.
=------------------------------------------------------------------------------=
