
     Program PWSCF v.5.1 starts on 30Jun2014 at 17:45:16 

     This program is part of the open-source Quantum ESPRESSO suite
     for quantum simulation of materials; please cite
         "P. Giannozzi et al., J. Phys.:Condens. Matter 21 395502 (2009);
          URL http://www.quantum-espresso.org", 
     in publications or presentations arising from this work. More details at
     http://www.quantum-espresso.org/quote

     Parallel version (MPI), running on     4 processors
     R & G space division:  proc/nbgrp/npool/nimage =       4
     Waiting for input...
     Reading input from standard input

     Current dimensions of program PWSCF are:
     Max number of different atomic species (ntypx) = 10
     Max number of k-points (npk) =  40000
     Max angular momentum in pseudopotentials (lmaxx) =  3
               file Fe.pbe-nd-rrkjus.UPF: wavefunction(s)  4S renormalized
               file Fe.pbe-nd-rrkjus.UPF: wavefunction(s)  4S renormalized

     Subspace diagonalization in iterative solution of the eigenvalue problem:
     a serial algorithm will be used

 
     Parallelization info
     --------------------
     sticks:   dense  smooth     PW     G-vecs:    dense   smooth      PW
     Min         595     199     60                18379     3540     586
     Max         596     200     61                18382     3545     587
     Sum        2383     797    241                73525    14171    2347
 
     Generating pointlists ...
     new r_m :   0.1786 (alat units)  1.9362 (a.u.) for type    1
     new r_m :   0.1786 (alat units)  1.9362 (a.u.) for type    2


     bravais-lattice index     =            3
     lattice parameter (alat)  =      10.8400  a.u.
     unit-cell volume          =     636.8804 (a.u.)^3
     number of atoms/cell      =            8
     number of atomic types    =            2
     number of electrons       =        64.00
     number of Kohn-Sham states=           50
     kinetic-energy cutoff     =      30.0000  Ry
     charge density cutoff     =     360.0000  Ry
     convergence threshold     =      1.0E-09
     mixing beta               =       0.3000
     number of iterations used =            8  plain     mixing
     Exchange-correlation      =  SLA  PW   PBE  PBE ( 1  4  3  4 0)

     celldm(1)=  10.840000  celldm(2)=   0.000000  celldm(3)=   0.000000
     celldm(4)=   0.000000  celldm(5)=   0.000000  celldm(6)=   0.000000

     crystal axes: (cart. coord. in units of alat)
               a(1) = (   0.500000   0.500000   0.500000 )  
               a(2) = (  -0.500000   0.500000   0.500000 )  
               a(3) = (  -0.500000  -0.500000   0.500000 )  

     reciprocal axes: (cart. coord. in units 2 pi/alat)
               b(1) = (  1.000000  0.000000  1.000000 )  
               b(2) = ( -1.000000  1.000000  0.000000 )  
               b(3) = (  0.000000 -1.000000  1.000000 )  


     PseudoPot. # 1 for Fe read from file:
     ../pseudo/Fe.pbe-nd-rrkjus.UPF
     MD5 check sum: 23c640529ef232ac9996b4ec1b0ce2fd
     Pseudo is Ultrasoft + core correction, Zval =  8.0
     Generated by new atomic code, or converted to UPF format
     Using radial grid of  957 points,  6 beta functions with: 
                l(1) =   0
                l(2) =   0
                l(3) =   1
                l(4) =   1
                l(5) =   2
                l(6) =   2
     Q(r) pseudized with 0 coefficients 


     PseudoPot. # 2 for Fe read from file:
     ../pseudo/Fe.pbe-nd-rrkjus.UPF
     MD5 check sum: 23c640529ef232ac9996b4ec1b0ce2fd
     Pseudo is Ultrasoft + core correction, Zval =  8.0
     Generated by new atomic code, or converted to UPF format
     Using radial grid of  957 points,  6 beta functions with: 
                l(1) =   0
                l(2) =   0
                l(3) =   1
                l(4) =   1
                l(5) =   2
                l(6) =   2
     Q(r) pseudized with 0 coefficients 


     atomic species   valence    mass     pseudopotential
        Fe1            8.00     1.00000     Fe( 1.00)
        Fe             8.00     1.00000     Fe( 1.00)

     Starting magnetic structure 
     atomic species   magnetization
        Fe1          0.600
        Fe           0.600


     Simplified LDA+U calculation (l_max = 2) with parameters (eV):
     atomic species    L          U    alpha       J0     beta
        Fe1            2     0.0000   0.1000   0.0000   0.0000
        Fe             2     0.0000   0.0000   0.0000   0.0000



     48 Sym. Ops., with inversion, found


                                    s                        frac. trans.

      isym =  1     identity                                     

 cryst.   s( 1) = (     1          0          0      )
                  (     0          1          0      )
                  (     0          0          1      )

 cart.    s( 1) = (  1.0000000  0.0000000  0.0000000 )
                  (  0.0000000  1.0000000  0.0000000 )
                  (  0.0000000  0.0000000  1.0000000 )


      isym =  2     180 deg rotation - cart. axis [0,0,1]        

 cryst.   s( 2) = (     0          0          1      )
                  (     1         -1          1      )
                  (     1          0          0      )

 cart.    s( 2) = ( -1.0000000  0.0000000  0.0000000 )
                  (  0.0000000 -1.0000000  0.0000000 )
                  (  0.0000000  0.0000000  1.0000000 )


      isym =  3     180 deg rotation - cart. axis [0,1,0]        

 cryst.   s( 3) = (    -1          1         -1      )
                  (     0          0         -1      )
                  (     0         -1          0      )

 cart.    s( 3) = ( -1.0000000  0.0000000  0.0000000 )
                  (  0.0000000  1.0000000  0.0000000 )
                  (  0.0000000  0.0000000 -1.0000000 )


      isym =  4     180 deg rotation - cart. axis [1,0,0]        

 cryst.   s( 4) = (     0         -1          0      )
                  (    -1          0          0      )
                  (    -1          1         -1      )

 cart.    s( 4) = (  1.0000000  0.0000000  0.0000000 )
                  (  0.0000000 -1.0000000  0.0000000 )
                  (  0.0000000  0.0000000 -1.0000000 )


      isym =  5     180 deg rotation - cart. axis [1,1,0]        

 cryst.   s( 5) = (     0          0         -1      )
                  (     0         -1          0      )
                  (    -1          0          0      )

 cart.    s( 5) = (  0.0000000  1.0000000  0.0000000 )
                  (  1.0000000  0.0000000  0.0000000 )
                  (  0.0000000  0.0000000 -1.0000000 )


      isym =  6     180 deg rotation - cart. axis [1,-1,0]       

 cryst.   s( 6) = (    -1          0          0      )
                  (    -1          1         -1      )
                  (     0          0         -1      )

 cart.    s( 6) = (  0.0000000 -1.0000000  0.0000000 )
                  ( -1.0000000  0.0000000  0.0000000 )
                  (  0.0000000  0.0000000 -1.0000000 )


      isym =  7      90 deg rotation - cart. axis [0,0,-1]       

 cryst.   s( 7) = (     1         -1          1      )
                  (     1          0          0      )
                  (     0          1          0      )

 cart.    s( 7) = (  0.0000000  1.0000000  0.0000000 )
                  ( -1.0000000  0.0000000  0.0000000 )
                  (  0.0000000  0.0000000  1.0000000 )


      isym =  8      90 deg rotation - cart. axis [0,0,1]        

 cryst.   s( 8) = (     0          1          0      )
                  (     0          0          1      )
                  (     1         -1          1      )

 cart.    s( 8) = (  0.0000000 -1.0000000  0.0000000 )
                  (  1.0000000  0.0000000  0.0000000 )
                  (  0.0000000  0.0000000  1.0000000 )


      isym =  9     180 deg rotation - cart. axis [1,0,1]        

 cryst.   s( 9) = (     1         -1          1      )
                  (     0         -1          0      )
                  (     0          0         -1      )

 cart.    s( 9) = (  0.0000000  0.0000000  1.0000000 )
                  (  0.0000000 -1.0000000  0.0000000 )
                  (  1.0000000  0.0000000  0.0000000 )


      isym = 10     180 deg rotation - cart. axis [-1,0,1]       

 cryst.   s(10) = (    -1          0          0      )
                  (     0          0          1      )
                  (     0          1          0      )

 cart.    s(10) = (  0.0000000  0.0000000 -1.0000000 )
                  (  0.0000000 -1.0000000  0.0000000 )
                  ( -1.0000000  0.0000000  0.0000000 )


      isym = 11      90 deg rotation - cart. axis [0,1,0]        

 cryst.   s(11) = (     0          0         -1      )
                  (     1          0          0      )
                  (     1         -1          1      )

 cart.    s(11) = (  0.0000000  0.0000000  1.0000000 )
                  (  0.0000000  1.0000000  0.0000000 )
                  ( -1.0000000  0.0000000  0.0000000 )


      isym = 12      90 deg rotation - cart. axis [0,-1,0]       

 cryst.   s(12) = (     0          1          0      )
                  (    -1          1         -1      )
                  (    -1          0          0      )

 cart.    s(12) = (  0.0000000  0.0000000 -1.0000000 )
                  (  0.0000000  1.0000000  0.0000000 )
                  (  1.0000000  0.0000000  0.0000000 )


      isym = 13     180 deg rotation - cart. axis [0,1,1]        

 cryst.   s(13) = (     0          1          0      )
                  (     1          0          0      )
                  (     0          0         -1      )

 cart.    s(13) = ( -1.0000000  0.0000000  0.0000000 )
                  (  0.0000000  0.0000000  1.0000000 )
                  (  0.0000000  1.0000000  0.0000000 )


      isym = 14     180 deg rotation - cart. axis [0,1,-1]       

 cryst.   s(14) = (    -1          0          0      )
                  (     0         -1          0      )
                  (     1         -1          1      )

 cart.    s(14) = ( -1.0000000  0.0000000  0.0000000 )
                  (  0.0000000  0.0000000 -1.0000000 )
                  (  0.0000000 -1.0000000  0.0000000 )


      isym = 15      90 deg rotation - cart. axis [-1,0,0]       

 cryst.   s(15) = (     0          0         -1      )
                  (    -1          1         -1      )
                  (     0          1          0      )

 cart.    s(15) = (  1.0000000  0.0000000  0.0000000 )
                  (  0.0000000  0.0000000  1.0000000 )
                  (  0.0000000 -1.0000000  0.0000000 )


      isym = 16      90 deg rotation - cart. axis [1,0,0]        

 cryst.   s(16) = (     1         -1          1      )
                  (     0          0          1      )
                  (    -1          0          0      )

 cart.    s(16) = (  1.0000000  0.0000000  0.0000000 )
                  (  0.0000000  0.0000000 -1.0000000 )
                  (  0.0000000  1.0000000  0.0000000 )


      isym = 17     120 deg rotation - cart. axis [-1,-1,-1]     

 cryst.   s(17) = (     1          0          0      )
                  (     0          0         -1      )
                  (    -1          1         -1      )

 cart.    s(17) = (  0.0000000  1.0000000  0.0000000 )
                  (  0.0000000  0.0000000  1.0000000 )
                  (  1.0000000  0.0000000  0.0000000 )


      isym = 18     120 deg rotation - cart. axis [-1,1,1]       

 cryst.   s(18) = (    -1          1         -1      )
                  (     0          1          0      )
                  (     1          0          0      )

 cart.    s(18) = (  0.0000000 -1.0000000  0.0000000 )
                  (  0.0000000  0.0000000  1.0000000 )
                  ( -1.0000000  0.0000000  0.0000000 )


      isym = 19     120 deg rotation - cart. axis [1,1,-1]       

 cryst.   s(19) = (     0         -1          0      )
                  (     1         -1          1      )
                  (     0          0          1      )

 cart.    s(19) = (  0.0000000  1.0000000  0.0000000 )
                  (  0.0000000  0.0000000 -1.0000000 )
                  ( -1.0000000  0.0000000  0.0000000 )


      isym = 20     120 deg rotation - cart. axis [1,-1,1]       

 cryst.   s(20) = (     0          0          1      )
                  (    -1          0          0      )
                  (     0         -1          0      )

 cart.    s(20) = (  0.0000000 -1.0000000  0.0000000 )
                  (  0.0000000  0.0000000 -1.0000000 )
                  (  1.0000000  0.0000000  0.0000000 )


      isym = 21     120 deg rotation - cart. axis [1,1,1]        

 cryst.   s(21) = (     1          0          0      )
                  (     1         -1          1      )
                  (     0         -1          0      )

 cart.    s(21) = (  0.0000000  0.0000000  1.0000000 )
                  (  1.0000000  0.0000000  0.0000000 )
                  (  0.0000000  1.0000000  0.0000000 )


      isym = 22     120 deg rotation - cart. axis [-1,1,-1]      

 cryst.   s(22) = (     0         -1          0      )
                  (     0          0         -1      )
                  (     1          0          0      )

 cart.    s(22) = (  0.0000000  0.0000000  1.0000000 )
                  ( -1.0000000  0.0000000  0.0000000 )
                  (  0.0000000 -1.0000000  0.0000000 )


      isym = 23     120 deg rotation - cart. axis [1,-1,-1]      

 cryst.   s(23) = (     0          0          1      )
                  (     0          1          0      )
                  (    -1          1         -1      )

 cart.    s(23) = (  0.0000000  0.0000000 -1.0000000 )
                  ( -1.0000000  0.0000000  0.0000000 )
                  (  0.0000000  1.0000000  0.0000000 )


      isym = 24     120 deg rotation - cart. axis [-1,-1,1]      

 cryst.   s(24) = (    -1          1         -1      )
                  (    -1          0          0      )
                  (     0          0          1      )

 cart.    s(24) = (  0.0000000  0.0000000 -1.0000000 )
                  (  1.0000000  0.0000000  0.0000000 )
                  (  0.0000000 -1.0000000  0.0000000 )


      isym = 25     inversion                                    

 cryst.   s(25) = (    -1          0          0      )
                  (     0         -1          0      )
                  (     0          0         -1      )

 cart.    s(25) = ( -1.0000000  0.0000000  0.0000000 )
                  (  0.0000000 -1.0000000  0.0000000 )
                  (  0.0000000  0.0000000 -1.0000000 )


      isym = 26     inv. 180 deg rotation - cart. axis [0,0,1]   

 cryst.   s(26) = (     0          0         -1      )
                  (    -1          1         -1      )
                  (    -1          0          0      )

 cart.    s(26) = (  1.0000000  0.0000000  0.0000000 )
                  (  0.0000000  1.0000000  0.0000000 )
                  (  0.0000000  0.0000000 -1.0000000 )


      isym = 27     inv. 180 deg rotation - cart. axis [0,1,0]   

 cryst.   s(27) = (     1         -1          1      )
                  (     0          0          1      )
                  (     0          1          0      )

 cart.    s(27) = (  1.0000000  0.0000000  0.0000000 )
                  (  0.0000000 -1.0000000  0.0000000 )
                  (  0.0000000  0.0000000  1.0000000 )


      isym = 28     inv. 180 deg rotation - cart. axis [1,0,0]   

 cryst.   s(28) = (     0          1          0      )
                  (     1          0          0      )
                  (     1         -1          1      )

 cart.    s(28) = ( -1.0000000  0.0000000  0.0000000 )
                  (  0.0000000  1.0000000  0.0000000 )
                  (  0.0000000  0.0000000  1.0000000 )


      isym = 29     inv. 180 deg rotation - cart. axis [1,1,0]   

 cryst.   s(29) = (     0          0          1      )
                  (     0          1          0      )
                  (     1          0          0      )

 cart.    s(29) = (  0.0000000 -1.0000000  0.0000000 )
                  ( -1.0000000  0.0000000  0.0000000 )
                  (  0.0000000  0.0000000  1.0000000 )


      isym = 30     inv. 180 deg rotation - cart. axis [1,-1,0]  

 cryst.   s(30) = (     1          0          0      )
                  (     1         -1          1      )
                  (     0          0          1      )

 cart.    s(30) = (  0.0000000  1.0000000  0.0000000 )
                  (  1.0000000  0.0000000  0.0000000 )
                  (  0.0000000  0.0000000  1.0000000 )


      isym = 31     inv.  90 deg rotation - cart. axis [0,0,-1]  

 cryst.   s(31) = (    -1          1         -1      )
                  (    -1          0          0      )
                  (     0         -1          0      )

 cart.    s(31) = (  0.0000000 -1.0000000  0.0000000 )
                  (  1.0000000  0.0000000  0.0000000 )
                  (  0.0000000  0.0000000 -1.0000000 )


      isym = 32     inv.  90 deg rotation - cart. axis [0,0,1]   

 cryst.   s(32) = (     0         -1          0      )
                  (     0          0         -1      )
                  (    -1          1         -1      )

 cart.    s(32) = (  0.0000000  1.0000000  0.0000000 )
                  ( -1.0000000  0.0000000  0.0000000 )
                  (  0.0000000  0.0000000 -1.0000000 )


      isym = 33     inv. 180 deg rotation - cart. axis [1,0,1]   

 cryst.   s(33) = (    -1          1         -1      )
                  (     0          1          0      )
                  (     0          0          1      )

 cart.    s(33) = (  0.0000000  0.0000000 -1.0000000 )
                  (  0.0000000  1.0000000  0.0000000 )
                  ( -1.0000000  0.0000000  0.0000000 )


      isym = 34     inv. 180 deg rotation - cart. axis [-1,0,1]  

 cryst.   s(34) = (     1          0          0      )
                  (     0          0         -1      )
                  (     0         -1          0      )

 cart.    s(34) = (  0.0000000  0.0000000  1.0000000 )
                  (  0.0000000  1.0000000  0.0000000 )
                  (  1.0000000  0.0000000  0.0000000 )


      isym = 35     inv.  90 deg rotation - cart. axis [0,1,0]   

 cryst.   s(35) = (     0          0          1      )
                  (    -1          0          0      )
                  (    -1          1         -1      )

 cart.    s(35) = (  0.0000000  0.0000000 -1.0000000 )
                  (  0.0000000 -1.0000000  0.0000000 )
                  (  1.0000000  0.0000000  0.0000000 )


      isym = 36     inv.  90 deg rotation - cart. axis [0,-1,0]  

 cryst.   s(36) = (     0         -1          0      )
                  (     1         -1          1      )
                  (     1          0          0      )

 cart.    s(36) = (  0.0000000  0.0000000  1.0000000 )
                  (  0.0000000 -1.0000000  0.0000000 )
                  ( -1.0000000  0.0000000  0.0000000 )


      isym = 37     inv. 180 deg rotation - cart. axis [0,1,1]   

 cryst.   s(37) = (     0         -1          0      )
                  (    -1          0          0      )
                  (     0          0          1      )

 cart.    s(37) = (  1.0000000  0.0000000  0.0000000 )
                  (  0.0000000  0.0000000 -1.0000000 )
                  (  0.0000000 -1.0000000  0.0000000 )


      isym = 38     inv. 180 deg rotation - cart. axis [0,1,-1]  

 cryst.   s(38) = (     1          0          0      )
                  (     0          1          0      )
                  (    -1          1         -1      )

 cart.    s(38) = (  1.0000000  0.0000000  0.0000000 )
                  (  0.0000000  0.0000000  1.0000000 )
                  (  0.0000000  1.0000000  0.0000000 )


      isym = 39     inv.  90 deg rotation - cart. axis [-1,0,0]  

 cryst.   s(39) = (     0          0          1      )
                  (     1         -1          1      )
                  (     0         -1          0      )

 cart.    s(39) = ( -1.0000000  0.0000000  0.0000000 )
                  (  0.0000000  0.0000000 -1.0000000 )
                  (  0.0000000  1.0000000  0.0000000 )


      isym = 40     inv.  90 deg rotation - cart. axis [1,0,0]   

 cryst.   s(40) = (    -1          1         -1      )
                  (     0          0         -1      )
                  (     1          0          0      )

 cart.    s(40) = ( -1.0000000  0.0000000  0.0000000 )
                  (  0.0000000  0.0000000  1.0000000 )
                  (  0.0000000 -1.0000000  0.0000000 )


      isym = 41     inv. 120 deg rotation - cart. axis [-1,-1,-1]

 cryst.   s(41) = (    -1          0          0      )
                  (     0          0          1      )
                  (     1         -1          1      )

 cart.    s(41) = (  0.0000000 -1.0000000  0.0000000 )
                  (  0.0000000  0.0000000 -1.0000000 )
                  ( -1.0000000  0.0000000  0.0000000 )


      isym = 42     inv. 120 deg rotation - cart. axis [-1,1,1]  

 cryst.   s(42) = (     1         -1          1      )
                  (     0         -1          0      )
                  (    -1          0          0      )

 cart.    s(42) = (  0.0000000  1.0000000  0.0000000 )
                  (  0.0000000  0.0000000 -1.0000000 )
                  (  1.0000000  0.0000000  0.0000000 )


      isym = 43     inv. 120 deg rotation - cart. axis [1,1,-1]  

 cryst.   s(43) = (     0          1          0      )
                  (    -1          1         -1      )
                  (     0          0         -1      )

 cart.    s(43) = (  0.0000000 -1.0000000  0.0000000 )
                  (  0.0000000  0.0000000  1.0000000 )
                  (  1.0000000  0.0000000  0.0000000 )


      isym = 44     inv. 120 deg rotation - cart. axis [1,-1,1]  

 cryst.   s(44) = (     0          0         -1      )
                  (     1          0          0      )
                  (     0          1          0      )

 cart.    s(44) = (  0.0000000  1.0000000  0.0000000 )
                  (  0.0000000  0.0000000  1.0000000 )
                  ( -1.0000000  0.0000000  0.0000000 )


      isym = 45     inv. 120 deg rotation - cart. axis [1,1,1]   

 cryst.   s(45) = (    -1          0          0      )
                  (    -1          1         -1      )
                  (     0          1          0      )

 cart.    s(45) = (  0.0000000  0.0000000 -1.0000000 )
                  ( -1.0000000  0.0000000  0.0000000 )
                  (  0.0000000 -1.0000000  0.0000000 )


      isym = 46     inv. 120 deg rotation - cart. axis [-1,1,-1] 

 cryst.   s(46) = (     0          1          0      )
                  (     0          0          1      )
                  (    -1          0          0      )

 cart.    s(46) = (  0.0000000  0.0000000 -1.0000000 )
                  (  1.0000000  0.0000000  0.0000000 )
                  (  0.0000000  1.0000000  0.0000000 )


      isym = 47     inv. 120 deg rotation - cart. axis [1,-1,-1] 

 cryst.   s(47) = (     0          0         -1      )
                  (     0         -1          0      )
                  (     1         -1          1      )

 cart.    s(47) = (  0.0000000  0.0000000  1.0000000 )
                  (  1.0000000  0.0000000  0.0000000 )
                  (  0.0000000 -1.0000000  0.0000000 )


      isym = 48     inv. 120 deg rotation - cart. axis [-1,-1,1] 

 cryst.   s(48) = (     1         -1          1      )
                  (     1          0          0      )
                  (     0          0         -1      )

 cart.    s(48) = (  0.0000000  0.0000000  1.0000000 )
                  ( -1.0000000  0.0000000  0.0000000 )
                  (  0.0000000  1.0000000  0.0000000 )


     point group O_h (m-3m) 
     there are 10 classes
     the character table:

       E     8C3   6C2'  6C4   3C2   i     6S4   8S6   3s_h  6s_d 
A_1g   1.00  1.00  1.00  1.00  1.00  1.00  1.00  1.00  1.00  1.00
A_2g   1.00  1.00 -1.00 -1.00  1.00  1.00 -1.00  1.00  1.00 -1.00
E_g    2.00 -1.00  0.00  0.00  2.00  2.00  0.00 -1.00  2.00  0.00
T_1g   3.00  0.00 -1.00  1.00 -1.00  3.00  1.00  0.00 -1.00 -1.00
T_2g   3.00  0.00  1.00 -1.00 -1.00  3.00 -1.00  0.00 -1.00  1.00
A_1u   1.00  1.00  1.00  1.00  1.00 -1.00 -1.00 -1.00 -1.00 -1.00
A_2u   1.00  1.00 -1.00 -1.00  1.00 -1.00  1.00 -1.00 -1.00  1.00
E_u    2.00 -1.00  0.00  0.00  2.00 -2.00  0.00  1.00 -2.00  0.00
T_1u   3.00  0.00 -1.00  1.00 -1.00 -3.00 -1.00  0.00  1.00  1.00
T_2u   3.00  0.00  1.00 -1.00 -1.00 -3.00  1.00  0.00  1.00 -1.00

     the symmetry operations in each class:
     E        1
     3C2      2    4    3
     6C2'     5    6   14   13   10    9
     6C4      7    8   15   16   12   11
     8C3     17   19   20   18   24   21   22   23
     i       25
     3s_h    26   28   27
     6s_d    29   30   38   37   34   33
     6S4     31   32   39   40   36   35
     8S6     41   43   44   42   48   45   46   47

   Cartesian axes

     site n.     atom                  positions (alat units)
         1           Fe1 tau(   1) = (   0.0000000   0.0000000   0.0000000  )
         2           Fe  tau(   2) = (   0.2500000   0.2500000   0.2500000  )
         3           Fe  tau(   3) = (  -0.2500000   0.2500000   0.2500000  )
         4           Fe  tau(   4) = (  -0.2500000  -0.2500000   0.2500000  )
         5           Fe  tau(   5) = (   0.0000000   0.5000000   0.5000000  )
         6           Fe  tau(   6) = (  -0.5000000   0.0000000   0.5000000  )
         7           Fe  tau(   7) = (   0.0000000   0.0000000   0.5000000  )
         8           Fe  tau(   8) = (  -0.2500000   0.2500000   0.7500000  )

   Crystallographic axes

     site n.     atom                  positions (cryst. coord.)
         1           Fe1 tau(   1) = (  0.0000000  0.0000000  0.0000000  )
         2           Fe  tau(   2) = (  0.5000000  0.0000000  0.0000000  )
         3           Fe  tau(   3) = (  0.0000000  0.5000000  0.0000000  )
         4           Fe  tau(   4) = (  0.0000000  0.0000000  0.5000000  )
         5           Fe  tau(   5) = (  0.5000000  0.5000000  0.0000000  )
         6           Fe  tau(   6) = (  0.0000000  0.5000000  0.5000000  )
         7           Fe  tau(   7) = (  0.5000000  0.0000000  0.5000000  )
         8           Fe  tau(   8) = (  0.5000000  0.5000000  0.5000000  )

     number of k points=    16  Methfessel-Paxton smearing, width (Ry)=  0.0100
                       cart. coord. in units 2pi/alat
        k(    1) = (   0.0000000   0.0000000   0.0000000), wk =   0.0156250
        k(    2) = (   0.0000000  -0.2500000   0.2500000), wk =   0.1875000
        k(    3) = (   0.0000000   0.5000000  -0.5000000), wk =   0.0937500
        k(    4) = (  -0.2500000   0.7500000  -0.5000000), wk =   0.3750000
        k(    5) = (   0.0000000   0.0000000   0.5000000), wk =   0.0937500
        k(    6) = (   0.0000000   0.7500000  -0.2500000), wk =   0.1875000
        k(    7) = (   0.5000000  -0.5000000   0.5000000), wk =   0.0312500
        k(    8) = (   0.0000000   0.0000000  -1.0000000), wk =   0.0156250
        k(    9) = (   0.0000000   0.0000000   0.0000000), wk =   0.0156250
        k(   10) = (   0.0000000  -0.2500000   0.2500000), wk =   0.1875000
        k(   11) = (   0.0000000   0.5000000  -0.5000000), wk =   0.0937500
        k(   12) = (  -0.2500000   0.7500000  -0.5000000), wk =   0.3750000
        k(   13) = (   0.0000000   0.0000000   0.5000000), wk =   0.0937500
        k(   14) = (   0.0000000   0.7500000  -0.2500000), wk =   0.1875000
        k(   15) = (   0.5000000  -0.5000000   0.5000000), wk =   0.0312500
        k(   16) = (   0.0000000   0.0000000  -1.0000000), wk =   0.0156250

                       cryst. coord.
        k(    1) = (   0.0000000   0.0000000   0.0000000), wk =   0.0156250
        k(    2) = (   0.0000000   0.0000000   0.2500000), wk =   0.1875000
        k(    3) = (   0.0000000   0.0000000  -0.5000000), wk =   0.0937500
        k(    4) = (   0.0000000   0.2500000  -0.5000000), wk =   0.3750000
        k(    5) = (   0.2500000   0.2500000   0.2500000), wk =   0.0937500
        k(    6) = (   0.2500000   0.2500000  -0.5000000), wk =   0.1875000
        k(    7) = (   0.2500000  -0.2500000   0.2500000), wk =   0.0312500
        k(    8) = (  -0.5000000  -0.5000000  -0.5000000), wk =   0.0156250
        k(    9) = (   0.0000000   0.0000000   0.0000000), wk =   0.0156250
        k(   10) = (   0.0000000   0.0000000   0.2500000), wk =   0.1875000
        k(   11) = (   0.0000000   0.0000000  -0.5000000), wk =   0.0937500
        k(   12) = (   0.0000000   0.2500000  -0.5000000), wk =   0.3750000
        k(   13) = (   0.2500000   0.2500000   0.2500000), wk =   0.0937500
        k(   14) = (   0.2500000   0.2500000  -0.5000000), wk =   0.1875000
        k(   15) = (   0.2500000  -0.2500000   0.2500000), wk =   0.0312500
        k(   16) = (  -0.5000000  -0.5000000  -0.5000000), wk =   0.0156250

     Dense  grid:    73525 G-vectors     FFT dimensions: (  60,  60,  60)

     Smooth grid:    14171 G-vectors     FFT dimensions: (  36,  36,  36)

     Largest allocated arrays     est. size (Mb)     dimensions
        Kohn-Sham Wavefunctions         0.34 Mb     (     450,   50)
        Atomic Hubbard wavefuncts       0.27 Mb     (     450,   40)
        NL pseudopotentials             0.99 Mb     (     450,  144)
        Each V/rho on FFT grid          1.65 Mb     (   54000,   2)
        Each G-vector array             0.14 Mb     (   18382)
        G-vector shells                 0.00 Mb     (     490)
     Largest temporary arrays     est. size (Mb)     dimensions
        Auxiliary wavefunctions         1.37 Mb     (     450,  200)
        Each subspace H/S matrix        0.61 Mb     (     200,  200)
        Each <psi_i|beta_j> matrix      0.11 Mb     (     144,   50)
        Arrays for rho mixing           6.59 Mb     (   54000,    8)

     The initial density is read from file :
     ./temp/fe.save/charge-density.dat

 --- in v_hubbard ---
Hubbard energy    0.0552
 -------
     Number of +U iterations with fixed ns =  0
     Starting occupations:
 --- enter write_ns ---
 LDA+U parameters:
U( 1)     =  0.00000000
alpha( 1) =  0.10000000
U( 2)     =  0.00000000
alpha( 2) =  0.00000000
atom    1   Tr[ns(na)] (up, down, total) =   4.88168  2.63170  7.51338
   spin  1
    eigenvalues: 
  0.969  0.969  0.969  0.987  0.987
    eigenvectors:
  0.000  0.000  0.000  0.713  0.287
  0.071  0.313  0.616  0.000  0.000
  0.362  0.291  0.347  0.000  0.000
  0.000  0.000  0.000  0.287  0.713
  0.567  0.396  0.037  0.000  0.000
    occupations:
  0.987  0.000  0.000  0.000  0.000
  0.000  0.969  0.000  0.000  0.000
  0.000  0.000  0.969  0.000  0.000
  0.000  0.000  0.000  0.987  0.000
  0.000  0.000  0.000  0.000  0.969
   spin  2
    eigenvalues: 
  0.447  0.447  0.579  0.579  0.579
    eigenvectors:
  0.760  0.240  0.000  0.000  0.000
  0.000  0.000  0.079  0.543  0.377
  0.000  0.000  0.365  0.130  0.504
  0.240  0.760  0.000  0.000  0.000
  0.000  0.000  0.555  0.326  0.118
    occupations:
  0.447  0.000  0.000  0.000  0.000
  0.000  0.579  0.000  0.000  0.000
  0.000  0.000  0.579  0.000  0.000
  0.000  0.000  0.000  0.447  0.000
  0.000  0.000  0.000  0.000  0.579
atomic mag. moment =     2.249974
atom    2   Tr[ns(na)] (up, down, total) =   4.88168  2.63168  7.51337
   spin  1
    eigenvalues: 
  0.969  0.969  0.969  0.987  0.987
    eigenvectors:
  0.000  0.000  0.000  0.588  0.412
  0.333  0.404  0.262  0.000  0.000
  0.333  0.016  0.651  0.000  0.000
  0.000  0.000  0.000  0.412  0.588
  0.333  0.580  0.087  0.000  0.000
    occupations:
  0.987  0.000  0.000  0.000  0.000
  0.000  0.969  0.000  0.000  0.000
  0.000  0.000  0.969  0.000  0.000
  0.000  0.000  0.000  0.987  0.000
  0.000  0.000  0.000  0.000  0.969
   spin  2
    eigenvalues: 
  0.447  0.447  0.579  0.579  0.579
    eigenvectors:
  0.496  0.504  0.000  0.000  0.000
  0.000  0.000  0.381  0.286  0.333
  0.000  0.000  0.024  0.643  0.333
  0.504  0.496  0.000  0.000  0.000
  0.000  0.000  0.595  0.071  0.333
    occupations:
  0.447  0.000  0.000  0.000  0.000
  0.000  0.579  0.000  0.000  0.000
  0.000  0.000  0.579  0.000  0.000
  0.000  0.000  0.000  0.447  0.000
  0.000  0.000  0.000  0.000  0.579
atomic mag. moment =     2.250002
atom    3   Tr[ns(na)] (up, down, total) =   4.88168  2.63168  7.51337
   spin  1
    eigenvalues: 
  0.969  0.969  0.969  0.987  0.987
    eigenvectors:
  0.000  0.000  0.000  0.567  0.433
  0.333  0.011  0.655  0.000  0.000
  0.333  0.569  0.098  0.000  0.000
  0.000  0.000  0.000  0.433  0.567
  0.333  0.420  0.247  0.000  0.000
    occupations:
  0.987  0.000  0.000  0.000  0.000
  0.000  0.969  0.000  0.000  0.000
  0.000  0.000  0.969  0.000  0.000
  0.000  0.000  0.000  0.987  0.000
  0.000  0.000  0.000  0.000  0.969
   spin  2
    eigenvalues: 
  0.447  0.447  0.579  0.579  0.579
    eigenvectors:
  0.586  0.414  0.000  0.000  0.000
  0.000  0.000  0.026  0.641  0.333
  0.000  0.000  0.599  0.068  0.333
  0.414  0.586  0.000  0.000  0.000
  0.000  0.000  0.376  0.291  0.333
    occupations:
  0.447  0.000  0.000  0.000  0.000
  0.000  0.579  0.000  0.000  0.000
  0.000  0.000  0.579  0.000  0.000
  0.000  0.000  0.000  0.447  0.000
  0.000  0.000  0.000  0.000  0.579
atomic mag. moment =     2.250002
atom    4   Tr[ns(na)] (up, down, total) =   4.88168  2.63168  7.51337
   spin  1
    eigenvalues: 
  0.969  0.969  0.969  0.987  0.987
    eigenvectors:
  0.000  0.000  0.000  0.586  0.414
  0.333  0.056  0.610  0.000  0.000
  0.333  0.311  0.355  0.000  0.000
  0.000  0.000  0.000  0.414  0.586
  0.333  0.632  0.034  0.000  0.000
    occupations:
  0.987  0.000  0.000  0.000  0.000
  0.000  0.969  0.000  0.000  0.000
  0.000  0.000  0.969  0.000  0.000
  0.000  0.000  0.000  0.987  0.000
  0.000  0.000  0.000  0.000  0.969
   spin  2
    eigenvalues: 
  0.447  0.447  0.579  0.579  0.579
    eigenvectors:
  0.453  0.547  0.000  0.000  0.000
  0.000  0.000  0.045  0.622  0.333
  0.000  0.000  0.333  0.334  0.333
  0.547  0.453  0.000  0.000  0.000
  0.000  0.000  0.622  0.045  0.333
    occupations:
  0.447  0.000  0.000  0.000  0.000
  0.000  0.579  0.000  0.000  0.000
  0.000  0.000  0.579  0.000  0.000
  0.000  0.000  0.000  0.447  0.000
  0.000  0.000  0.000  0.000  0.579
atomic mag. moment =     2.250002
atom    5   Tr[ns(na)] (up, down, total) =   4.88169  2.63169  7.51338
   spin  1
    eigenvalues: 
  0.969  0.969  0.969  0.987  0.987
    eigenvectors:
  0.000  0.000  0.000  0.250  0.750
  0.062  0.938  0.000  0.000  0.000
  0.000  0.000  1.000  0.000  0.000
  0.000  0.000  0.000  0.750  0.250
  0.938  0.062  0.000  0.000  0.000
    occupations:
  0.987  0.000  0.000  0.000  0.000
  0.000  0.969  0.000  0.000  0.000
  0.000  0.000  0.969  0.000  0.000
  0.000  0.000  0.000  0.987  0.000
  0.000  0.000  0.000  0.000  0.969
   spin  2
    eigenvalues: 
  0.447  0.447  0.579  0.579  0.579
    eigenvectors:
  0.250  0.750  0.000  0.000  0.000
  0.000  0.000  0.000  0.065  0.935
  0.000  0.000  1.000  0.000  0.000
  0.750  0.250  0.000  0.000  0.000
  0.000  0.000  0.000  0.935  0.065
    occupations:
  0.447  0.000  0.000  0.000  0.000
  0.000  0.579  0.000  0.000  0.000
  0.000  0.000  0.579  0.000  0.000
  0.000  0.000  0.000  0.447  0.000
  0.000  0.000  0.000  0.000  0.579
atomic mag. moment =     2.250000
atom    6   Tr[ns(na)] (up, down, total) =   4.88169  2.63169  7.51338
   spin  1
    eigenvalues: 
  0.969  0.969  0.969  0.987  0.987
    eigenvectors:
  0.000  0.000  0.000  0.250  0.750
  0.000  0.000  1.000  0.000  0.000
  0.358  0.642  0.000  0.000  0.000
  0.000  0.000  0.000  0.750  0.250
  0.642  0.358  0.000  0.000  0.000
    occupations:
  0.987  0.000  0.000  0.000  0.000
  0.000  0.969  0.000  0.000  0.000
  0.000  0.000  0.969  0.000  0.000
  0.000  0.000  0.000  0.987  0.000
  0.000  0.000  0.000  0.000  0.969
   spin  2
    eigenvalues: 
  0.447  0.447  0.579  0.579  0.579
    eigenvectors:
  0.250  0.750  0.000  0.000  0.000
  0.000  0.000  1.000  0.000  0.000
  0.000  0.000  0.000  0.332  0.668
  0.750  0.250  0.000  0.000  0.000
  0.000  0.000  0.000  0.668  0.332
    occupations:
  0.447  0.000  0.000  0.000  0.000
  0.000  0.579  0.000  0.000  0.000
  0.000  0.000  0.579  0.000  0.000
  0.000  0.000  0.000  0.447  0.000
  0.000  0.000  0.000  0.000  0.579
atomic mag. moment =     2.250000
atom    7   Tr[ns(na)] (up, down, total) =   4.88169  2.63169  7.51338
   spin  1
    eigenvalues: 
  0.969  0.969  0.969  0.987  0.987
    eigenvectors:
  0.000  0.000  0.000  1.000  0.000
  0.220  0.780  0.000  0.000  0.000
  0.780  0.220  0.000  0.000  0.000
  0.000  0.000  0.000  0.000  1.000
  0.000  0.000  1.000  0.000  0.000
    occupations:
  0.987  0.000  0.000  0.000  0.000
  0.000  0.969  0.000  0.000  0.000
  0.000  0.000  0.969  0.000  0.000
  0.000  0.000  0.000  0.987  0.000
  0.000  0.000  0.000  0.000  0.969
   spin  2
    eigenvalues: 
  0.447  0.447  0.579  0.579  0.579
    eigenvectors:
  1.000  0.000  0.000  0.000  0.000
  0.000  0.000  0.000  0.277  0.723
  0.000  0.000  0.000  0.723  0.277
  0.000  1.000  0.000  0.000  0.000
  0.000  0.000  1.000  0.000  0.000
    occupations:
  0.447  0.000  0.000  0.000  0.000
  0.000  0.579  0.000  0.000  0.000
  0.000  0.000  0.579  0.000  0.000
  0.000  0.000  0.000  0.447  0.000
  0.000  0.000  0.000  0.000  0.579
atomic mag. moment =     2.250000
atom    8   Tr[ns(na)] (up, down, total) =   4.88168  2.63168  7.51337
   spin  1
    eigenvalues: 
  0.969  0.969  0.969  0.987  0.987
    eigenvectors:
  0.000  0.000  0.000  0.500  0.500
  0.333  0.666  0.001  0.000  0.000
  0.333  0.147  0.520  0.000  0.000
  0.000  0.000  0.000  0.500  0.500
  0.333  0.188  0.479  0.000  0.000
    occupations:
  0.987  0.000  0.000  0.000  0.000
  0.000  0.969  0.000  0.000  0.000
  0.000  0.000  0.969  0.000  0.000
  0.000  0.000  0.000  0.987  0.000
  0.000  0.000  0.000  0.000  0.969
   spin  2
    eigenvalues: 
  0.447  0.447  0.579  0.579  0.579
    eigenvectors:
  0.540  0.460  0.000  0.000  0.000
  0.000  0.000  0.665  0.002  0.333
  0.000  0.000  0.136  0.530  0.333
  0.460  0.540  0.000  0.000  0.000
  0.000  0.000  0.199  0.468  0.333
    occupations:
  0.447  0.000  0.000  0.000  0.000
  0.000  0.579  0.000  0.000  0.000
  0.000  0.000  0.579  0.000  0.000
  0.000  0.000  0.000  0.447  0.000
  0.000  0.000  0.000  0.000  0.579
atomic mag. moment =     2.250002
N of occupied +U levels =   60.106981
 --- exit write_ns ---
 Atomic wfc used for LDA+U Projector are NOT orthogonalized
     Starting wfc from file

     total cpu time spent up to now is        2.1 secs

     per-process dynamical memory:    25.7 Mb

     Self-consistent Calculation

     iteration #  1     ecut=    30.00 Ry     beta=0.30
     Davidson diagonalization with overlap
     c_bands:  2 eigenvalues not converged
     c_bands:  4 eigenvalues not converged
     c_bands:  2 eigenvalues not converged
     c_bands:  3 eigenvalues not converged
     c_bands:  1 eigenvalues not converged
     c_bands:  1 eigenvalues not converged
     c_bands:  4 eigenvalues not converged
     c_bands:  2 eigenvalues not converged
     ethr =  1.72E-12,  avg # of iterations = 13.8
 --- enter write_ns ---
 LDA+U parameters:
U( 1)     =  0.00000000
alpha( 1) =  0.10000000
U( 2)     =  0.00000000
alpha( 2) =  0.00000000
atom    1   Tr[ns(na)] (up, down, total) =   4.87170  2.54808  7.41978
   spin  1
    eigenvalues: 
  0.966  0.966  0.966  0.986  0.986
    eigenvectors:
  0.000  0.000  0.000  0.750  0.250
  0.076  0.357  0.567  0.000  0.000
  0.355  0.258  0.387  0.000  0.000
  0.000  0.000  0.000  0.250  0.750
  0.569  0.384  0.047  0.000  0.000
    occupations:
  0.986  0.000  0.000  0.000  0.000
  0.000  0.966  0.000  0.000  0.000
  0.000  0.000  0.966  0.000  0.000
  0.000  0.000  0.000  0.986  0.000
  0.000  0.000  0.000  0.000  0.966
   spin  2
    eigenvalues: 
  0.433  0.433  0.560  0.560  0.560
    eigenvectors:
  0.616  0.384  0.000  0.000  0.000
  0.000  0.000  0.069  0.415  0.515
  0.000  0.000  0.345  0.233  0.421
  0.384  0.616  0.000  0.000  0.000
  0.000  0.000  0.585  0.352  0.063
    occupations:
  0.433  0.000  0.000  0.000  0.000
  0.000  0.560  0.000  0.000  0.000
  0.000  0.000  0.560  0.000  0.000
  0.000  0.000  0.000  0.433  0.000
  0.000  0.000  0.000  0.000  0.560
atomic mag. moment =     2.323623
atom    2   Tr[ns(na)] (up, down, total) =   4.88280  2.64429  7.52709
   spin  1
    eigenvalues: 
  0.968  0.970  0.970  0.987  0.987
    eigenvectors:
  0.000  0.000  0.000  0.602  0.398
  0.333  0.417  0.250  0.000  0.000
  0.333  0.012  0.654  0.000  0.000
  0.000  0.000  0.000  0.398  0.602
  0.333  0.571  0.095  0.000  0.000
    occupations:
  0.987  0.000  0.000  0.000  0.000
  0.000  0.969  0.000  0.000  0.000
  0.000  0.000  0.969  0.000  0.000
  0.000  0.000  0.000  0.987  0.000
  0.000  0.000  0.000  0.000  0.969
   spin  2
    eigenvalues: 
  0.449  0.449  0.581  0.581  0.583
    eigenvectors:
  0.644  0.356  0.000  0.000  0.000
  0.000  0.000  0.415  0.252  0.333
  0.000  0.000  0.013  0.654  0.333
  0.356  0.644  0.000  0.000  0.000
  0.000  0.000  0.573  0.094  0.333
    occupations:
  0.449 -0.001 -0.001  0.000 -0.001
 -0.001  0.582  0.000 -0.001  0.000
 -0.001  0.000  0.582  0.001  0.000
  0.000 -0.001  0.001  0.449  0.000
 -0.001  0.000  0.000  0.000  0.582
atomic mag. moment =     2.238516
atom    3   Tr[ns(na)] (up, down, total) =   4.88280  2.64429  7.52709
   spin  1
    eigenvalues: 
  0.968  0.970  0.970  0.987  0.987
    eigenvectors:
  0.000  0.000  0.000  0.515  0.485
  0.333  0.022  0.645  0.000  0.000
  0.333  0.592  0.074  0.000  0.000
  0.000  0.000  0.000  0.485  0.515
  0.333  0.386  0.281  0.000  0.000
    occupations:
  0.987  0.000  0.000  0.000  0.000
  0.000  0.969  0.000  0.000  0.000
  0.000  0.000  0.969  0.000  0.000
  0.000  0.000  0.000  0.987  0.000
  0.000  0.000  0.000  0.000  0.969
   spin  2
    eigenvalues: 
  0.449  0.449  0.581  0.581  0.583
    eigenvectors:
  0.563  0.437  0.000  0.000  0.000
  0.000  0.000  0.016  0.650  0.333
  0.000  0.000  0.581  0.085  0.333
  0.437  0.563  0.000  0.000  0.000
  0.000  0.000  0.402  0.264  0.333
    occupations:
  0.449  0.001 -0.001  0.000  0.001
  0.001  0.582  0.000  0.001  0.000
 -0.001  0.000  0.582  0.001  0.000
  0.000  0.001  0.001  0.449  0.000
  0.001  0.000  0.000  0.000  0.582
atomic mag. moment =     2.238516
atom    4   Tr[ns(na)] (up, down, total) =   4.88280  2.64429  7.52709
   spin  1
    eigenvalues: 
  0.968  0.970  0.970  0.987  0.987
    eigenvectors:
  0.000  0.000  0.000  0.571  0.429
  0.333  0.063  0.604  0.000  0.000
  0.333  0.300  0.367  0.000  0.000
  0.000  0.000  0.000  0.429  0.571
  0.333  0.637  0.029  0.000  0.000
    occupations:
  0.987  0.000  0.000  0.000  0.000
  0.000  0.969  0.000  0.000  0.000
  0.000  0.000  0.969  0.000  0.000
  0.000  0.000  0.000  0.987  0.000
  0.000  0.000  0.000  0.000  0.969
   spin  2
    eigenvalues: 
  0.449  0.449  0.581  0.581  0.583
    eigenvectors:
  0.640  0.360  0.000  0.000  0.000
  0.000  0.000  0.054  0.613  0.333
  0.000  0.000  0.315  0.351  0.333
  0.360  0.640  0.000  0.000  0.000
  0.000  0.000  0.631  0.036  0.333
    occupations:
  0.449  0.001  0.001  0.000 -0.001
  0.001  0.582  0.000  0.001  0.000
  0.001  0.000  0.582 -0.001  0.000
  0.000  0.001 -0.001  0.449  0.000
 -0.001  0.000  0.000  0.000  0.582
atomic mag. moment =     2.238516
atom    5   Tr[ns(na)] (up, down, total) =   4.88401  2.63811  7.52212
   spin  1
    eigenvalues: 
  0.969  0.969  0.970  0.987  0.988
    eigenvectors:
  0.000  0.000  0.000  0.250  0.750
  0.074  0.926  0.000  0.000  0.000
  0.000  0.000  1.000  0.000  0.000
  0.000  0.000  0.000  0.750  0.250
  0.926  0.074  0.000  0.000  0.000
    occupations:
  0.988  0.000  0.000  0.000  0.000
  0.000  0.969  0.000  0.000  0.000
  0.000  0.000  0.970  0.000  0.000
  0.000  0.000  0.000  0.988  0.000
  0.000  0.000  0.000  0.000  0.969
   spin  2
    eigenvalues: 
  0.447  0.447  0.581  0.581  0.582
    eigenvectors:
  0.750  0.250  0.000  0.000  0.000
  0.000  0.000  0.075  0.925  0.000
  0.000  0.000  0.000  0.000  1.000
  0.250  0.750  0.000  0.000  0.000
  0.000  0.000  0.925  0.075  0.000
    occupations:
  0.447  0.000  0.000  0.000  0.000
  0.000  0.581  0.000  0.000  0.000
  0.000  0.000  0.582  0.000  0.000
  0.000  0.000  0.000  0.447  0.000
  0.000  0.000  0.000  0.000  0.581
atomic mag. moment =     2.245895
atom    6   Tr[ns(na)] (up, down, total) =   4.88401  2.63811  7.52212
   spin  1
    eigenvalues: 
  0.969  0.969  0.970  0.987  0.988
    eigenvectors:
  0.000  0.000  0.000  0.250  0.750
  0.000  0.000  1.000  0.000  0.000
  0.338  0.662  0.000  0.000  0.000
  0.000  0.000  0.000  0.750  0.250
  0.662  0.338  0.000  0.000  0.000
    occupations:
  0.988  0.000  0.000  0.000  0.000
  0.000  0.970  0.000  0.000  0.000
  0.000  0.000  0.969  0.000  0.000
  0.000  0.000  0.000  0.988  0.000
  0.000  0.000  0.000  0.000  0.969
   spin  2
    eigenvalues: 
  0.447  0.447  0.581  0.581  0.582
    eigenvectors:
  0.750  0.250  0.000  0.000  0.000
  0.000  0.000  0.000  0.000  1.000
  0.000  0.000  0.365  0.635  0.000
  0.250  0.750  0.000  0.000  0.000
  0.000  0.000  0.635  0.365  0.000
    occupations:
  0.447  0.000  0.000  0.000  0.000
  0.000  0.582  0.000  0.000  0.000
  0.000  0.000  0.581  0.000  0.000
  0.000  0.000  0.000  0.447  0.000
  0.000  0.000  0.000  0.000  0.581
atomic mag. moment =     2.245895
atom    7   Tr[ns(na)] (up, down, total) =   4.88401  2.63811  7.52212
   spin  1
    eigenvalues: 
  0.969  0.969  0.970  0.987  0.988
    eigenvectors:
  0.000  0.000  0.000  1.000  0.000
  0.271  0.729  0.000  0.000  0.000
  0.729  0.271  0.000  0.000  0.000
  0.000  0.000  0.000  0.000  1.000
  0.000  0.000  1.000  0.000  0.000
    occupations:
  0.987  0.000  0.000  0.000  0.000
  0.000  0.969  0.000  0.000  0.000
  0.000  0.000  0.969  0.000  0.000
  0.000  0.000  0.000  0.988  0.000
  0.000  0.000  0.000  0.000  0.970
   spin  2
    eigenvalues: 
  0.447  0.447  0.581  0.581  0.582
    eigenvectors:
  0.000  1.000  0.000  0.000  0.000
  0.000  0.000  0.211  0.789  0.000
  0.000  0.000  0.789  0.211  0.000
  1.000  0.000  0.000  0.000  0.000
  0.000  0.000  0.000  0.000  1.000
    occupations:
  0.447  0.000  0.000  0.000  0.000
  0.000  0.581  0.000  0.000  0.000
  0.000  0.000  0.581  0.000  0.000
  0.000  0.000  0.000  0.447  0.000
  0.000  0.000  0.000  0.000  0.582
atomic mag. moment =     2.245895
atom    8   Tr[ns(na)] (up, down, total) =   4.88280  2.64429  7.52709
   spin  1
    eigenvalues: 
  0.968  0.970  0.970  0.987  0.987
    eigenvectors:
  0.000  0.000  0.000  0.616  0.384
  0.333  0.655  0.012  0.000  0.000
  0.333  0.097  0.570  0.000  0.000
  0.000  0.000  0.000  0.384  0.616
  0.333  0.248  0.418  0.000  0.000
    occupations:
  0.987  0.000  0.000  0.000  0.000
  0.000  0.969  0.000  0.000  0.000
  0.000  0.000  0.969  0.000  0.000
  0.000  0.000  0.000  0.987  0.000
  0.000  0.000  0.000  0.000  0.969
   spin  2
    eigenvalues: 
  0.449  0.449  0.581  0.581  0.583
    eigenvectors:
  0.703  0.296  0.000  0.000  0.000
  0.000  0.000  0.660  0.006  0.333
  0.000  0.000  0.114  0.552  0.333
  0.296  0.703  0.000  0.000  0.000
  0.000  0.000  0.225  0.441  0.333
    occupations:
  0.449 -0.001  0.001  0.000  0.001
 -0.001  0.582  0.000 -0.001  0.000
  0.001  0.000  0.582 -0.001  0.000
  0.000 -0.001 -0.001  0.449  0.000
  0.001  0.000  0.000  0.000  0.582
atomic mag. moment =     2.238516
N of occupied +U levels =   60.094527
 --- exit write_ns ---
 --- in v_hubbard ---
Hubbard energy    0.0550
 -------
 
     Magnetic moment per site:
     atom:    1    charge:    6.4527    magn:    2.5415    constr:    0.0000
     atom:    2    charge:    6.4815    magn:    2.5217    constr:    0.0000
     atom:    3    charge:    6.4815    magn:    2.5217    constr:    0.0000
     atom:    4    charge:    6.4815    magn:    2.5217    constr:    0.0000
     atom:    5    charge:    6.4803    magn:    2.5238    constr:    0.0000
     atom:    6    charge:    6.4803    magn:    2.5238    constr:    0.0000
     atom:    7    charge:    6.4803    magn:    2.5238    constr:    0.0000
     atom:    8    charge:    6.4815    magn:    2.5217    constr:    0.0000

     total cpu time spent up to now is       15.0 secs

     total energy              =    -446.35734740 Ry
     Harris-Foulkes estimate   =    -446.35942236 Ry
     estimated scf accuracy    <       0.00445206 Ry

     total magnetization       =    19.55 Bohr mag/cell
     absolute magnetization    =    21.00 Bohr mag/cell

     iteration #  2     ecut=    30.00 Ry     beta=0.30
     Davidson diagonalization with overlap
     ethr =  6.96E-06,  avg # of iterations =  3.3
 --- enter write_ns ---
 LDA+U parameters:
U( 1)     =  0.00000000
alpha( 1) =  0.10000000
U( 2)     =  0.00000000
alpha( 2) =  0.00000000
atom    1   Tr[ns(na)] (up, down, total) =   4.92487  2.81881  7.74368
   spin  1
    eigenvalues: 
  0.980  0.980  0.980  0.992  0.992
    eigenvectors:
  0.000  0.000  0.000  0.639  0.361
  0.068  0.368  0.564  0.000  0.000
  0.346  0.268  0.386  0.000  0.000
  0.000  0.000  0.000  0.361  0.639
  0.586  0.364  0.049  0.000  0.000
    occupations:
  0.992  0.000  0.000  0.000  0.000
  0.000  0.980  0.000  0.000  0.000
  0.000  0.000  0.980  0.000  0.000
  0.000  0.000  0.000  0.992  0.000
  0.000  0.000  0.000  0.000  0.980
   spin  2
    eigenvalues: 
  0.475  0.475  0.623  0.623  0.623
    eigenvectors:
  0.585  0.415  0.000  0.000  0.000
  0.000  0.000  0.066  0.303  0.631
  0.000  0.000  0.340  0.322  0.338
  0.415  0.585  0.000  0.000  0.000
  0.000  0.000  0.595  0.375  0.031
    occupations:
  0.475  0.000  0.000  0.000  0.000
  0.000  0.623  0.000  0.000  0.000
  0.000  0.000  0.623  0.000  0.000
  0.000  0.000  0.000  0.475  0.000
  0.000  0.000  0.000  0.000  0.623
atomic mag. moment =     2.106057
atom    2   Tr[ns(na)] (up, down, total) =   4.87992  2.59734  7.47726
   spin  1
    eigenvalues: 
  0.967  0.967  0.973  0.987  0.987
    eigenvectors:
  0.000  0.000  0.000  0.594  0.406
  0.428  0.239  0.333  0.000  0.000
  0.009  0.657  0.333  0.000  0.000
  0.000  0.000  0.000  0.406  0.594
  0.563  0.104  0.333  0.000  0.000
    occupations:
  0.987  0.000  0.000  0.000  0.000
  0.000  0.969  0.002  0.000 -0.002
  0.000  0.002  0.969  0.000 -0.002
  0.000  0.000  0.000  0.987  0.000
  0.000 -0.002 -0.002  0.000  0.969
   spin  2
    eigenvalues: 
  0.441  0.441  0.569  0.573  0.573
    eigenvectors:
  0.652  0.348  0.000  0.000  0.000
  0.000  0.000  0.333  0.441  0.225
  0.000  0.000  0.333  0.006  0.660
  0.348  0.652  0.000  0.000  0.000
  0.000  0.000  0.333  0.552  0.114
    occupations:
  0.441  0.001  0.001  0.000  0.003
  0.001  0.572 -0.001  0.002  0.001
  0.001 -0.001  0.572 -0.002  0.001
  0.000  0.002 -0.002  0.441  0.000
  0.003  0.001  0.001  0.000  0.572
atomic mag. moment =     2.282587
atom    3   Tr[ns(na)] (up, down, total) =   4.87992  2.59734  7.47726
   spin  1
    eigenvalues: 
  0.967  0.967  0.973  0.987  0.987
    eigenvectors:
  0.000  0.000  0.000  0.563  0.437
  0.016  0.651  0.333  0.000  0.000
  0.579  0.087  0.333  0.000  0.000
  0.000  0.000  0.000  0.437  0.563
  0.405  0.262  0.333  0.000  0.000
    occupations:
  0.987  0.000  0.000  0.000  0.000
  0.000  0.969 -0.002  0.000 -0.002
  0.000 -0.002  0.969  0.000  0.002
  0.000  0.000  0.000  0.987  0.000
  0.000 -0.002  0.002  0.000  0.969
   spin  2
    eigenvalues: 
  0.441  0.441  0.569  0.573  0.573
    eigenvectors:
  0.695  0.304  0.000  0.000  0.000
  0.000  0.000  0.333  0.019  0.647
  0.000  0.000  0.333  0.586  0.080
  0.304  0.695  0.000  0.000  0.000
  0.000  0.000  0.333  0.395  0.272
    occupations:
  0.441 -0.001  0.001  0.000 -0.003
 -0.001  0.572  0.001 -0.002  0.001
  0.001  0.001  0.572 -0.002 -0.001
  0.000 -0.002 -0.002  0.441  0.000
 -0.003  0.001 -0.001  0.000  0.572
atomic mag. moment =     2.282587
atom    4   Tr[ns(na)] (up, down, total) =   4.87992  2.59734  7.47726
   spin  1
    eigenvalues: 
  0.967  0.967  0.973  0.987  0.987
    eigenvectors:
  0.000  0.000  0.000  0.624  0.376
  0.058  0.608  0.333  0.000  0.000
  0.308  0.359  0.333  0.000  0.000
  0.000  0.000  0.000  0.376  0.624
  0.634  0.033  0.333  0.000  0.000
    occupations:
  0.987  0.000  0.000  0.000  0.000
  0.000  0.969  0.002  0.000  0.002
  0.000  0.002  0.969  0.000  0.002
  0.000  0.000  0.000  0.987  0.000
  0.000  0.002  0.002  0.000  0.969
   spin  2
    eigenvalues: 
  0.441  0.441  0.569  0.573  0.573
    eigenvectors:
  0.670  0.329  0.000  0.001  0.000
  0.000  0.000  0.333  0.060  0.606
  0.000  0.000  0.333  0.305  0.361
  0.329  0.670  0.000  0.000  0.001
  0.000  0.000  0.333  0.635  0.032
    occupations:
  0.441 -0.001 -0.001  0.000  0.003
 -0.001  0.572 -0.001 -0.002 -0.001
 -0.001 -0.001  0.572  0.002 -0.001
  0.000 -0.002  0.002  0.441  0.000
  0.003 -0.001 -0.001  0.000  0.572
atomic mag. moment =     2.282587
atom    5   Tr[ns(na)] (up, down, total) =   4.87347  2.60735  7.48083
   spin  1
    eigenvalues: 
  0.964  0.969  0.969  0.986  0.987
    eigenvectors:
  0.000  0.000  0.000  0.750  0.250
  0.000  0.074  0.926  0.000  0.000
  1.000  0.000  0.000  0.000  0.000
  0.000  0.000  0.000  0.250  0.750
  0.000  0.926  0.074  0.000  0.000
    occupations:
  0.986  0.000  0.000  0.000  0.000
  0.000  0.969  0.000  0.000  0.000
  0.000  0.000  0.964  0.000  0.000
  0.000  0.000  0.000  0.987  0.000
  0.000  0.000  0.000  0.000  0.969
   spin  2
    eigenvalues: 
  0.442  0.446  0.572  0.574  0.574
    eigenvectors:
  0.250  0.750  0.000  0.000  0.000
  0.000  0.000  0.000  0.076  0.924
  0.000  0.000  1.000  0.000  0.000
  0.750  0.250  0.000  0.000  0.000
  0.000  0.000  0.000  0.924  0.076
    occupations:
  0.445  0.000  0.000  0.001  0.000
  0.000  0.574  0.000  0.000  0.000
  0.000  0.000  0.572  0.000  0.000
  0.001  0.000  0.000  0.443  0.000
  0.000  0.000  0.000  0.000  0.574
atomic mag. moment =     2.266121
atom    6   Tr[ns(na)] (up, down, total) =   4.87347  2.60735  7.48083
   spin  1
    eigenvalues: 
  0.964  0.969  0.969  0.986  0.987
    eigenvectors:
  0.000  0.000  0.000  0.750  0.250
  1.000  0.000  0.000  0.000  0.000
  0.000  0.356  0.644  0.000  0.000
  0.000  0.000  0.000  0.250  0.750
  0.000  0.644  0.356  0.000  0.000
    occupations:
  0.986  0.000  0.000  0.000  0.000
  0.000  0.964  0.000  0.000  0.000
  0.000  0.000  0.969  0.000  0.000
  0.000  0.000  0.000  0.987  0.000
  0.000  0.000  0.000  0.000  0.969
   spin  2
    eigenvalues: 
  0.442  0.446  0.572  0.574  0.574
    eigenvectors:
  0.250  0.750  0.000  0.000  0.000
  0.000  0.000  1.000  0.000  0.000
  0.000  0.000  0.000  0.323  0.677
  0.750  0.250  0.000  0.000  0.000
  0.000  0.000  0.000  0.677  0.323
    occupations:
  0.445  0.000  0.000 -0.001  0.000
  0.000  0.572  0.000  0.000  0.000
  0.000  0.000  0.574  0.000  0.000
 -0.001  0.000  0.000  0.443  0.000
  0.000  0.000  0.000  0.000  0.574
atomic mag. moment =     2.266121
atom    7   Tr[ns(na)] (up, down, total) =   4.87347  2.60735  7.48083
   spin  1
    eigenvalues: 
  0.964  0.969  0.969  0.986  0.987
    eigenvectors:
  0.000  0.000  0.000  0.000  1.000
  0.000  0.269  0.731  0.000  0.000
  0.000  0.731  0.269  0.000  0.000
  0.000  0.000  0.000  1.000  0.000
  1.000  0.000  0.000  0.000  0.000
    occupations:
  0.987  0.000  0.000  0.000  0.000
  0.000  0.969  0.000  0.000  0.000
  0.000  0.000  0.969  0.000  0.000
  0.000  0.000  0.000  0.986  0.000
  0.000  0.000  0.000  0.000  0.964
   spin  2
    eigenvalues: 
  0.442  0.446  0.572  0.574  0.574
    eigenvectors:
  1.000  0.000  0.000  0.000  0.000
  0.000  0.000  0.000  0.237  0.763
  0.000  0.000  0.000  0.763  0.237
  0.000  1.000  0.000  0.000  0.000
  0.000  0.000  1.000  0.000  0.000
    occupations:
  0.442  0.000  0.000  0.000  0.000
  0.000  0.574  0.000  0.000  0.000
  0.000  0.000  0.574  0.000  0.000
  0.000  0.000  0.000  0.446  0.000
  0.000  0.000  0.000  0.000  0.572
atomic mag. moment =     2.266121
atom    8   Tr[ns(na)] (up, down, total) =   4.87992  2.59734  7.47726
   spin  1
    eigenvalues: 
  0.967  0.967  0.973  0.987  0.987
    eigenvectors:
  0.000  0.000  0.000  0.691  0.309
  0.661  0.005  0.333  0.000  0.000
  0.118  0.549  0.333  0.000  0.000
  0.000  0.000  0.000  0.309  0.691
  0.221  0.445  0.333  0.000  0.000
    occupations:
  0.987  0.000  0.000  0.000  0.000
  0.000  0.969 -0.002  0.000  0.002
  0.000 -0.002  0.969  0.000 -0.002
  0.000  0.000  0.000  0.987  0.000
  0.000  0.002 -0.002  0.000  0.969
   spin  2
    eigenvalues: 
  0.441  0.441  0.569  0.573  0.573
    eigenvectors:
  0.493  0.506  0.000  0.000  0.000
  0.000  0.000  0.333  0.663  0.003
  0.000  0.000  0.333  0.128  0.538
  0.506  0.493  0.000  0.000  0.000
  0.000  0.000  0.333  0.208  0.458
    occupations:
  0.441  0.001 -0.001  0.000 -0.003
  0.001  0.572  0.001  0.002 -0.001
 -0.001  0.001  0.572  0.002  0.001
  0.000  0.002  0.002  0.441  0.000
 -0.003 -0.001  0.001  0.000  0.572
atomic mag. moment =     2.282587
N of occupied +U levels =   60.095202
 --- exit write_ns ---
 --- in v_hubbard ---
Hubbard energy    0.0551
 -------
 
     Magnetic moment per site:
     atom:    1    charge:    6.4716    magn:    2.5348    constr:    0.0000
     atom:    2    charge:    6.4787    magn:    2.5235    constr:    0.0000
     atom:    3    charge:    6.4787    magn:    2.5235    constr:    0.0000
     atom:    4    charge:    6.4787    magn:    2.5235    constr:    0.0000
     atom:    5    charge:    6.4778    magn:    2.5244    constr:    0.0000
     atom:    6    charge:    6.4778    magn:    2.5244    constr:    0.0000
     atom:    7    charge:    6.4778    magn:    2.5244    constr:    0.0000
     atom:    8    charge:    6.4787    magn:    2.5235    constr:    0.0000

     total cpu time spent up to now is       19.8 secs

     total energy              =    -446.35592389 Ry
     Harris-Foulkes estimate   =    -446.36263915 Ry
     estimated scf accuracy    <       0.05580573 Ry

     total magnetization       =    19.58 Bohr mag/cell
     absolute magnetization    =    21.02 Bohr mag/cell

     iteration #  3     ecut=    30.00 Ry     beta=0.30
     Davidson diagonalization with overlap
     ethr =  6.96E-06,  avg # of iterations =  1.8
 --- enter write_ns ---
 LDA+U parameters:
U( 1)     =  0.00000000
alpha( 1) =  0.10000000
U( 2)     =  0.00000000
alpha( 2) =  0.00000000
atom    1   Tr[ns(na)] (up, down, total) =   4.88481  2.60475  7.48956
   spin  1
    eigenvalues: 
  0.970  0.970  0.970  0.988  0.988
    eigenvectors:
  0.000  0.000  0.000  0.568  0.432
  0.075  0.387  0.538  0.000  0.000
  0.352  0.241  0.407  0.000  0.000
  0.000  0.000  0.000  0.432  0.568
  0.573  0.372  0.055  0.000  0.000
    occupations:
  0.988  0.000  0.000  0.000  0.000
  0.000  0.970  0.000  0.000  0.000
  0.000  0.000  0.970  0.000  0.000
  0.000  0.000  0.000  0.988  0.000
  0.000  0.000  0.000  0.000  0.970
   spin  2
    eigenvalues: 
  0.442  0.442  0.574  0.574  0.574
    eigenvectors:
  0.573  0.427  0.000  0.000  0.000
  0.000  0.000  0.075  0.387  0.538
  0.000  0.000  0.350  0.242  0.408
  0.427  0.573  0.000  0.000  0.000
  0.000  0.000  0.575  0.371  0.054
    occupations:
  0.442  0.000  0.000  0.000  0.000
  0.000  0.574  0.000  0.000  0.000
  0.000  0.000  0.574  0.000  0.000
  0.000  0.000  0.000  0.442  0.000
  0.000  0.000  0.000  0.000  0.574
atomic mag. moment =     2.280053
atom    2   Tr[ns(na)] (up, down, total) =   4.88127  2.63232  7.51359
   spin  1
    eigenvalues: 
  0.969  0.969  0.969  0.987  0.987
    eigenvectors:
  0.000  0.000  0.000  0.694  0.306
  0.412  0.255  0.333  0.000  0.000
  0.014  0.653  0.333  0.000  0.000
  0.000  0.000  0.000  0.306  0.694
  0.575  0.092  0.333  0.000  0.000
    occupations:
  0.987  0.000  0.000  0.000  0.000
  0.000  0.969  0.000  0.000  0.000
  0.000  0.000  0.969  0.000  0.000
  0.000  0.000  0.000  0.987  0.000
  0.000  0.000  0.000  0.000  0.969
   spin  2
    eigenvalues: 
  0.447  0.447  0.579  0.579  0.580
    eigenvectors:
  0.630  0.370  0.000  0.000  0.000
  0.000  0.000  0.424  0.243  0.333
  0.000  0.000  0.010  0.656  0.333
  0.370  0.630  0.000  0.000  0.000
  0.000  0.000  0.566  0.101  0.333
    occupations:
  0.447  0.000  0.000  0.000  0.000
  0.000  0.579  0.000  0.000  0.000
  0.000  0.000  0.579  0.000  0.000
  0.000  0.000  0.000  0.447  0.000
  0.000  0.000  0.000  0.000  0.579
atomic mag. moment =     2.248955
atom    3   Tr[ns(na)] (up, down, total) =   4.88127  2.63232  7.51359
   spin  1
    eigenvalues: 
  0.969  0.969  0.969  0.987  0.987
    eigenvectors:
  0.000  0.000  0.000  0.574  0.426
  0.020  0.647  0.333  0.000  0.000
  0.588  0.079  0.333  0.000  0.000
  0.000  0.000  0.000  0.426  0.574
  0.392  0.274  0.333  0.000  0.000
    occupations:
  0.987  0.000  0.000  0.000  0.000
  0.000  0.969  0.000  0.000  0.000
  0.000  0.000  0.969  0.000  0.000
  0.000  0.000  0.000  0.987  0.000
  0.000  0.000  0.000  0.000  0.969
   spin  2
    eigenvalues: 
  0.447  0.447  0.579  0.579  0.580
    eigenvectors:
  0.570  0.430  0.000  0.000  0.000
  0.000  0.000  0.023  0.643  0.333
  0.000  0.000  0.594  0.072  0.333
  0.430  0.570  0.000  0.000  0.000
  0.000  0.000  0.383  0.284  0.333
    occupations:
  0.447  0.000  0.000  0.000  0.000
  0.000  0.579  0.000  0.000  0.000
  0.000  0.000  0.579  0.000  0.000
  0.000  0.000  0.000  0.447  0.000
  0.000  0.000  0.000  0.000  0.579
atomic mag. moment =     2.248955
atom    4   Tr[ns(na)] (up, down, total) =   4.88127  2.63232  7.51359
   spin  1
    eigenvalues: 
  0.969  0.969  0.969  0.987  0.987
    eigenvectors:
  0.000  0.000  0.000  0.566  0.434
  0.058  0.609  0.333  0.000  0.000
  0.309  0.358  0.333  0.000  0.000
  0.000  0.000  0.000  0.434  0.566
  0.633  0.033  0.333  0.000  0.000
    occupations:
  0.987  0.000  0.000  0.000  0.000
  0.000  0.969  0.000  0.000  0.000
  0.000  0.000  0.969  0.000  0.000
  0.000  0.000  0.000  0.987  0.000
  0.000  0.000  0.000  0.000  0.969
   spin  2
    eigenvalues: 
  0.447  0.447  0.579  0.579  0.580
    eigenvectors:
  0.627  0.373  0.000  0.000  0.000
  0.000  0.000  0.059  0.608  0.333
  0.000  0.000  0.306  0.360  0.333
  0.373  0.627  0.000  0.000  0.000
  0.000  0.000  0.634  0.032  0.333
    occupations:
  0.447  0.000  0.000  0.000  0.000
  0.000  0.579  0.000  0.000  0.000
  0.000  0.000  0.579  0.000  0.000
  0.000  0.000  0.000  0.447  0.000
  0.000  0.000  0.000  0.000  0.579
atomic mag. moment =     2.248955
atom    5   Tr[ns(na)] (up, down, total) =   4.88169  2.63569  7.51738
   spin  1
    eigenvalues: 
  0.969  0.969  0.969  0.987  0.987
    eigenvectors:
  0.000  0.000  0.000  0.750  0.250
  0.000  0.076  0.924  0.000  0.000
  1.000  0.000  0.000  0.000  0.000
  0.000  0.000  0.000  0.250  0.750
  0.000  0.924  0.076  0.000  0.000
    occupations:
  0.987  0.000  0.000  0.000  0.000
  0.000  0.969  0.000  0.000  0.000
  0.000  0.000  0.969  0.000  0.000
  0.000  0.000  0.000  0.987  0.000
  0.000  0.000  0.000  0.000  0.969
   spin  2
    eigenvalues: 
  0.447  0.447  0.580  0.580  0.580
    eigenvectors:
  0.250  0.750  0.000  0.000  0.000
  0.000  0.000  0.082  0.918  0.000
  0.000  0.000  0.000  0.000  1.000
  0.750  0.250  0.000  0.000  0.000
  0.000  0.000  0.918  0.082  0.000
    occupations:
  0.447  0.000  0.000  0.000  0.000
  0.000  0.580  0.000  0.000  0.000
  0.000  0.000  0.580  0.000  0.000
  0.000  0.000  0.000  0.447  0.000
  0.000  0.000  0.000  0.000  0.580
atomic mag. moment =     2.245994
atom    6   Tr[ns(na)] (up, down, total) =   4.88169  2.63569  7.51738
   spin  1
    eigenvalues: 
  0.969  0.969  0.969  0.987  0.987
    eigenvectors:
  0.000  0.000  0.000  0.750  0.250
  1.000  0.000  0.000  0.000  0.000
  0.000  0.356  0.644  0.000  0.000
  0.000  0.000  0.000  0.250  0.750
  0.000  0.644  0.356  0.000  0.000
    occupations:
  0.987  0.000  0.000  0.000  0.000
  0.000  0.969  0.000  0.000  0.000
  0.000  0.000  0.969  0.000  0.000
  0.000  0.000  0.000  0.987  0.000
  0.000  0.000  0.000  0.000  0.969
   spin  2
    eigenvalues: 
  0.447  0.447  0.580  0.580  0.580
    eigenvectors:
  0.250  0.750  0.000  0.000  0.000
  0.000  0.000  0.000  0.000  1.000
  0.000  0.000  0.331  0.669  0.000
  0.750  0.250  0.000  0.000  0.000
  0.000  0.000  0.669  0.331  0.000
    occupations:
  0.447  0.000  0.000  0.000  0.000
  0.000  0.580  0.000  0.000  0.000
  0.000  0.000  0.580  0.000  0.000
  0.000  0.000  0.000  0.447  0.000
  0.000  0.000  0.000  0.000  0.580
atomic mag. moment =     2.245994
atom    7   Tr[ns(na)] (up, down, total) =   4.88169  2.63569  7.51738
   spin  1
    eigenvalues: 
  0.969  0.969  0.969  0.987  0.987
    eigenvectors:
  0.000  0.000  0.000  0.000  1.000
  0.000  0.221  0.779  0.000  0.000
  0.000  0.779  0.221  0.000  0.000
  0.000  0.000  0.000  1.000  0.000
  1.000  0.000  0.000  0.000  0.000
    occupations:
  0.987  0.000  0.000  0.000  0.000
  0.000  0.969  0.000  0.000  0.000
  0.000  0.000  0.969  0.000  0.000
  0.000  0.000  0.000  0.987  0.000
  0.000  0.000  0.000  0.000  0.969
   spin  2
    eigenvalues: 
  0.447  0.447  0.580  0.580  0.580
    eigenvectors:
  1.000  0.000  0.000  0.000  0.000
  0.000  0.000  0.269  0.731  0.000
  0.000  0.000  0.731  0.269  0.000
  0.000  1.000  0.000  0.000  0.000
  0.000  0.000  0.000  0.000  1.000
    occupations:
  0.447  0.000  0.000  0.000  0.000
  0.000  0.580  0.000  0.000  0.000
  0.000  0.000  0.580  0.000  0.000
  0.000  0.000  0.000  0.447  0.000
  0.000  0.000  0.000  0.000  0.580
atomic mag. moment =     2.245994
atom    8   Tr[ns(na)] (up, down, total) =   4.88127  2.63232  7.51359
   spin  1
    eigenvalues: 
  0.969  0.969  0.969  0.987  0.987
    eigenvectors:
  0.000  0.000  0.000  0.638  0.362
  0.657  0.009  0.333  0.000  0.000
  0.103  0.563  0.333  0.000  0.000
  0.000  0.000  0.000  0.362  0.638
  0.240  0.427  0.333  0.000  0.000
    occupations:
  0.987  0.000  0.000  0.000  0.000
  0.000  0.969  0.000  0.000  0.000
  0.000  0.000  0.969  0.000  0.000
  0.000  0.000  0.000  0.987  0.000
  0.000  0.000  0.000  0.000  0.969
   spin  2
    eigenvalues: 
  0.447  0.447  0.579  0.579  0.580
    eigenvectors:
  0.691  0.309  0.000  0.000  0.000
  0.000  0.000  0.665  0.001  0.333
  0.000  0.000  0.140  0.527  0.333
  0.309  0.691  0.000  0.000  0.000
  0.000  0.000  0.195  0.472  0.333
    occupations:
  0.447  0.000  0.000  0.000  0.000
  0.000  0.579  0.000  0.000  0.000
  0.000  0.000  0.579  0.000  0.000
  0.000  0.000  0.000  0.447  0.000
  0.000  0.000  0.000  0.000  0.579
atomic mag. moment =     2.248955
N of occupied +U levels =   60.096077
 --- exit write_ns ---
 --- in v_hubbard ---
Hubbard energy    0.0551
 -------
 
     Magnetic moment per site:
     atom:    1    charge:    6.4716    magn:    2.5367    constr:    0.0000
     atom:    2    charge:    6.4784    magn:    2.5234    constr:    0.0000
     atom:    3    charge:    6.4784    magn:    2.5234    constr:    0.0000
     atom:    4    charge:    6.4784    magn:    2.5234    constr:    0.0000
     atom:    5    charge:    6.4781    magn:    2.5241    constr:    0.0000
     atom:    6    charge:    6.4781    magn:    2.5241    constr:    0.0000
     atom:    7    charge:    6.4781    magn:    2.5241    constr:    0.0000
     atom:    8    charge:    6.4784    magn:    2.5234    constr:    0.0000

     total cpu time spent up to now is       24.0 secs

     total energy              =    -446.35914174 Ry
     Harris-Foulkes estimate   =    -446.35914432 Ry
     estimated scf accuracy    <       0.00004493 Ry

     total magnetization       =    19.55 Bohr mag/cell
     absolute magnetization    =    21.00 Bohr mag/cell

     iteration #  4     ecut=    30.00 Ry     beta=0.30
     Davidson diagonalization with overlap
     ethr =  7.02E-08,  avg # of iterations =  2.7
 --- enter write_ns ---
 LDA+U parameters:
U( 1)     =  0.00000000
alpha( 1) =  0.10000000
U( 2)     =  0.00000000
alpha( 2) =  0.00000000
atom    1   Tr[ns(na)] (up, down, total) =   4.88505  2.60274  7.48779
   spin  1
    eigenvalues: 
  0.970  0.970  0.970  0.988  0.988
    eigenvectors:
  0.000  0.000  0.000  0.500  0.500
  0.072  0.449  0.479  0.000  0.000
  0.344  0.209  0.447  0.000  0.000
  0.000  0.000  0.000  0.500  0.500
  0.584  0.342  0.073  0.000  0.000
    occupations:
  0.988  0.000  0.000  0.000  0.000
  0.000  0.970  0.000  0.000  0.000
  0.000  0.000  0.970  0.000  0.000
  0.000  0.000  0.000  0.988  0.000
  0.000  0.000  0.000  0.000  0.970
   spin  2
    eigenvalues: 
  0.442  0.442  0.573  0.573  0.573
    eigenvectors:
  0.621  0.379  0.000  0.000  0.000
  0.000  0.000  0.076  0.491  0.432
  0.000  0.000  0.331  0.182  0.486
  0.379  0.621  0.000  0.000  0.000
  0.000  0.000  0.592  0.326  0.081
    occupations:
  0.442  0.000  0.000  0.000  0.000
  0.000  0.573  0.000  0.000  0.000
  0.000  0.000  0.573  0.000  0.000
  0.000  0.000  0.000  0.442  0.000
  0.000  0.000  0.000  0.000  0.573
atomic mag. moment =     2.282315
atom    2   Tr[ns(na)] (up, down, total) =   4.88160  2.63530  7.51690
   spin  1
    eigenvalues: 
  0.969  0.969  0.969  0.987  0.987
    eigenvectors:
  0.000  0.000  0.000  0.587  0.413
  0.429  0.238  0.333  0.000  0.000
  0.009  0.658  0.333  0.000  0.000
  0.000  0.000  0.000  0.413  0.587
  0.562  0.104  0.333  0.000  0.000
    occupations:
  0.987  0.000  0.000  0.000  0.000
  0.000  0.969  0.000  0.000  0.000
  0.000  0.000  0.969  0.000  0.000
  0.000  0.000  0.000  0.987  0.000
  0.000  0.000  0.000  0.000  0.969
   spin  2
    eigenvalues: 
  0.448  0.448  0.580  0.580  0.580
    eigenvectors:
  0.588  0.412  0.000  0.000  0.000
  0.000  0.000  0.405  0.262  0.333
  0.000  0.000  0.016  0.651  0.333
  0.412  0.588  0.000  0.000  0.000
  0.000  0.000  0.580  0.087  0.333
    occupations:
  0.448  0.000  0.000  0.000  0.000
  0.000  0.580  0.000  0.000  0.000
  0.000  0.000  0.580  0.000  0.000
  0.000  0.000  0.000  0.448  0.000
  0.000  0.000  0.000  0.000  0.580
atomic mag. moment =     2.246308
atom    3   Tr[ns(na)] (up, down, total) =   4.88160  2.63530  7.51690
   spin  1
    eigenvalues: 
  0.969  0.969  0.969  0.987  0.987
    eigenvectors:
  0.000  0.000  0.000  0.614  0.386
  0.019  0.648  0.333  0.000  0.000
  0.586  0.081  0.333  0.000  0.000
  0.000  0.000  0.000  0.386  0.614
  0.396  0.271  0.333  0.000  0.000
    occupations:
  0.987  0.000  0.000  0.000  0.000
  0.000  0.969  0.000  0.000  0.000
  0.000  0.000  0.969  0.000  0.000
  0.000  0.000  0.000  0.987  0.000
  0.000  0.000  0.000  0.000  0.969
   spin  2
    eigenvalues: 
  0.448  0.448  0.580  0.580  0.580
    eigenvectors:
  0.485  0.515  0.000  0.000  0.000
  0.000  0.000  0.016  0.650  0.333
  0.000  0.000  0.581  0.086  0.333
  0.515  0.485  0.000  0.000  0.000
  0.000  0.000  0.403  0.264  0.333
    occupations:
  0.448  0.000  0.000  0.000  0.000
  0.000  0.580  0.000  0.000  0.000
  0.000  0.000  0.580  0.000  0.000
  0.000  0.000  0.000  0.448  0.000
  0.000  0.000  0.000  0.000  0.580
atomic mag. moment =     2.246308
atom    4   Tr[ns(na)] (up, down, total) =   4.88160  2.63530  7.51690
   spin  1
    eigenvalues: 
  0.969  0.969  0.969  0.987  0.987
    eigenvectors:
  0.000  0.000  0.000  0.684  0.316
  0.056  0.611  0.333  0.000  0.000
  0.312  0.355  0.333  0.000  0.000
  0.000  0.000  0.000  0.316  0.684
  0.632  0.034  0.333  0.000  0.000
    occupations:
  0.987  0.000  0.000  0.000  0.000
  0.000  0.969  0.000  0.000  0.000
  0.000  0.000  0.969  0.000  0.000
  0.000  0.000  0.000  0.987  0.000
  0.000  0.000  0.000  0.000  0.969
   spin  2
    eigenvalues: 
  0.448  0.448  0.580  0.580  0.580
    eigenvectors:
  0.568  0.432  0.000  0.000  0.000
  0.000  0.000  0.051  0.616  0.333
  0.000  0.000  0.321  0.345  0.333
  0.432  0.568  0.000  0.000  0.000
  0.000  0.000  0.628  0.039  0.333
    occupations:
  0.448  0.000  0.000  0.000  0.000
  0.000  0.580  0.000  0.000  0.000
  0.000  0.000  0.580  0.000  0.000
  0.000  0.000  0.000  0.448  0.000
  0.000  0.000  0.000  0.000  0.580
atomic mag. moment =     2.246308
atom    5   Tr[ns(na)] (up, down, total) =   4.88124  2.63234  7.51358
   spin  1
    eigenvalues: 
  0.969  0.969  0.969  0.987  0.987
    eigenvectors:
  0.000  0.000  0.000  0.750  0.250
  0.000  0.068  0.932  0.000  0.000
  1.000  0.000  0.000  0.000  0.000
  0.000  0.000  0.000  0.250  0.750
  0.000  0.932  0.068  0.000  0.000
    occupations:
  0.987  0.000  0.000  0.000  0.000
  0.000  0.969  0.000  0.000  0.000
  0.000  0.000  0.969  0.000  0.000
  0.000  0.000  0.000  0.987  0.000
  0.000  0.000  0.000  0.000  0.969
   spin  2
    eigenvalues: 
  0.446  0.447  0.580  0.580  0.580
    eigenvectors:
  0.250  0.750  0.000  0.000  0.000
  0.000  0.000  0.069  0.931  0.000
  0.000  0.000  0.000  0.000  1.000
  0.750  0.250  0.000  0.000  0.000
  0.000  0.000  0.931  0.069  0.000
    occupations:
  0.447  0.000  0.000  0.000  0.000
  0.000  0.580  0.000  0.000  0.000
  0.000  0.000  0.580  0.000  0.000
  0.000  0.000  0.000  0.447  0.000
  0.000  0.000  0.000  0.000  0.580
atomic mag. moment =     2.248904
atom    6   Tr[ns(na)] (up, down, total) =   4.88124  2.63234  7.51358
   spin  1
    eigenvalues: 
  0.969  0.969  0.969  0.987  0.987
    eigenvectors:
  0.000  0.000  0.000  0.750  0.250
  1.000  0.000  0.000  0.000  0.000
  0.000  0.322  0.678  0.000  0.000
  0.000  0.000  0.000  0.250  0.750
  0.000  0.678  0.322  0.000  0.000
    occupations:
  0.987  0.000  0.000  0.000  0.000
  0.000  0.969  0.000  0.000  0.000
  0.000  0.000  0.969  0.000  0.000
  0.000  0.000  0.000  0.987  0.000
  0.000  0.000  0.000  0.000  0.969
   spin  2
    eigenvalues: 
  0.446  0.447  0.580  0.580  0.580
    eigenvectors:
  0.250  0.750  0.000  0.000  0.000
  0.000  0.000  0.000  0.000  1.000
  0.000  0.000  0.368  0.632  0.000
  0.750  0.250  0.000  0.000  0.000
  0.000  0.000  0.632  0.368  0.000
    occupations:
  0.447  0.000  0.000  0.000  0.000
  0.000  0.580  0.000  0.000  0.000
  0.000  0.000  0.580  0.000  0.000
  0.000  0.000  0.000  0.447  0.000
  0.000  0.000  0.000  0.000  0.580
atomic mag. moment =     2.248904
atom    7   Tr[ns(na)] (up, down, total) =   4.88124  2.63234  7.51358
   spin  1
    eigenvalues: 
  0.969  0.969  0.969  0.987  0.987
    eigenvectors:
  0.000  0.000  0.000  0.000  1.000
  0.000  0.222  0.778  0.000  0.000
  0.000  0.778  0.222  0.000  0.000
  0.000  0.000  0.000  1.000  0.000
  1.000  0.000  0.000  0.000  0.000
    occupations:
  0.987  0.000  0.000  0.000  0.000
  0.000  0.969  0.000  0.000  0.000
  0.000  0.000  0.969  0.000  0.000
  0.000  0.000  0.000  0.987  0.000
  0.000  0.000  0.000  0.000  0.969
   spin  2
    eigenvalues: 
  0.446  0.447  0.580  0.580  0.580
    eigenvectors:
  1.000  0.000  0.000  0.000  0.000
  0.000  0.000  0.293  0.707  0.000
  0.000  0.000  0.707  0.293  0.000
  0.000  1.000  0.000  0.000  0.000
  0.000  0.000  0.000  0.000  1.000
    occupations:
  0.446  0.000  0.000  0.000  0.000
  0.000  0.580  0.000  0.000  0.000
  0.000  0.000  0.580  0.000  0.000
  0.000  0.000  0.000  0.447  0.000
  0.000  0.000  0.000  0.000  0.580
atomic mag. moment =     2.248904
atom    8   Tr[ns(na)] (up, down, total) =   4.88160  2.63530  7.51690
   spin  1
    eigenvalues: 
  0.969  0.969  0.969  0.987  0.987
    eigenvectors:
  0.000  0.000  0.000  0.565  0.435
  0.650  0.017  0.333  0.000  0.000
  0.084  0.583  0.333  0.000  0.000
  0.000  0.000  0.000  0.435  0.565
  0.266  0.400  0.333  0.000  0.000
    occupations:
  0.987  0.000  0.000  0.000  0.000
  0.000  0.969  0.000  0.000  0.000
  0.000  0.000  0.969  0.000  0.000
  0.000  0.000  0.000  0.987  0.000
  0.000  0.000  0.000  0.000  0.969
   spin  2
    eigenvalues: 
  0.448  0.448  0.580  0.580  0.580
    eigenvectors:
  0.675  0.325  0.000  0.000  0.000
  0.000  0.000  0.660  0.006  0.333
  0.000  0.000  0.114  0.552  0.333
  0.325  0.675  0.000  0.000  0.000
  0.000  0.000  0.225  0.442  0.333
    occupations:
  0.448  0.000  0.000  0.000  0.000
  0.000  0.580  0.000  0.000  0.000
  0.000  0.000  0.580  0.000  0.000
  0.000  0.000  0.000  0.448  0.000
  0.000  0.000  0.000  0.000  0.580
atomic mag. moment =     2.246308
N of occupied +U levels =   60.096137
 --- exit write_ns ---
 --- in v_hubbard ---
Hubbard energy    0.0551
 -------
 
     Magnetic moment per site:
     atom:    1    charge:    6.4703    magn:    2.5544    constr:    0.0000
     atom:    2    charge:    6.4785    magn:    2.5216    constr:    0.0000
     atom:    3    charge:    6.4785    magn:    2.5216    constr:    0.0000
     atom:    4    charge:    6.4785    magn:    2.5216    constr:    0.0000
     atom:    5    charge:    6.4777    magn:    2.5229    constr:    0.0000
     atom:    6    charge:    6.4777    magn:    2.5229    constr:    0.0000
     atom:    7    charge:    6.4777    magn:    2.5229    constr:    0.0000
     atom:    8    charge:    6.4785    magn:    2.5216    constr:    0.0000

     total cpu time spent up to now is       29.0 secs

     total energy              =    -446.35917803 Ry
     Harris-Foulkes estimate   =    -446.35916961 Ry
     estimated scf accuracy    <       0.00002273 Ry

     total magnetization       =    19.55 Bohr mag/cell
     absolute magnetization    =    21.00 Bohr mag/cell

     iteration #  5     ecut=    30.00 Ry     beta=0.30
     Davidson diagonalization with overlap
     ethr =  3.55E-08,  avg # of iterations =  1.2
 --- enter write_ns ---
 LDA+U parameters:
U( 1)     =  0.00000000
alpha( 1) =  0.10000000
U( 2)     =  0.00000000
alpha( 2) =  0.00000000
atom    1   Tr[ns(na)] (up, down, total) =   4.88677  2.59588  7.48265
   spin  1
    eigenvalues: 
  0.970  0.970  0.970  0.988  0.988
    eigenvectors:
  0.000  0.000  0.000  0.567  0.433
  0.072  0.354  0.574  0.000  0.000
  0.350  0.270  0.380  0.000  0.000
  0.000  0.000  0.000  0.433  0.567
  0.579  0.376  0.045  0.000  0.000
    occupations:
  0.988  0.000  0.000  0.000  0.000
  0.000  0.970  0.000  0.000  0.000
  0.000  0.000  0.970  0.000  0.000
  0.000  0.000  0.000  0.988  0.000
  0.000  0.000  0.000  0.000  0.970
   spin  2
    eigenvalues: 
  0.441  0.441  0.572  0.572  0.572
    eigenvectors:
  0.635  0.365  0.000  0.000  0.000
  0.000  0.000  0.075  0.292  0.633
  0.000  0.000  0.375  0.291  0.333
  0.365  0.635  0.000  0.000  0.000
  0.000  0.000  0.550  0.417  0.033
    occupations:
  0.441  0.000  0.000  0.000  0.000
  0.000  0.572  0.000  0.000  0.000
  0.000  0.000  0.572  0.000  0.000
  0.000  0.000  0.000  0.441  0.000
  0.000  0.000  0.000  0.000  0.572
atomic mag. moment =     2.290891
atom    2   Tr[ns(na)] (up, down, total) =   4.88160  2.63525  7.51685
   spin  1
    eigenvalues: 
  0.969  0.969  0.969  0.987  0.987
    eigenvectors:
  0.000  0.000  0.000  0.728  0.272
  0.428  0.238  0.333  0.000  0.000
  0.009  0.658  0.333  0.000  0.000
  0.000  0.000  0.000  0.272  0.728
  0.562  0.104  0.333  0.000  0.000
    occupations:
  0.987  0.000  0.000  0.000  0.000
  0.000  0.969  0.000  0.000  0.000
  0.000  0.000  0.969  0.000  0.000
  0.000  0.000  0.000  0.987  0.000
  0.000  0.000  0.000  0.000  0.969
   spin  2
    eigenvalues: 
  0.448  0.448  0.580  0.580  0.580
    eigenvectors:
  0.512  0.488  0.000  0.000  0.000
  0.000  0.000  0.421  0.246  0.333
  0.000  0.000  0.011  0.656  0.333
  0.488  0.512  0.000  0.000  0.000
  0.000  0.000  0.568  0.099  0.333
    occupations:
  0.448  0.000  0.000  0.000 -0.001
  0.000  0.580  0.000  0.000  0.000
  0.000  0.000  0.580  0.000  0.000
  0.000  0.000  0.000  0.448  0.000
 -0.001  0.000  0.000  0.000  0.580
atomic mag. moment =     2.246354
atom    3   Tr[ns(na)] (up, down, total) =   4.88160  2.63525  7.51685
   spin  1
    eigenvalues: 
  0.969  0.969  0.969  0.987  0.987
    eigenvectors:
[...]
    11.7188  11.7188  11.8358  11.8358  11.8495  11.8536  11.8536  11.8536
    12.7389  12.7389  12.7389  12.9858  12.9858  12.9858  12.9982  12.9982
    12.9982  13.5663  13.5663  13.5663  13.5837  13.5837  13.5837  19.8611
    19.8815  19.8815

     occupation numbers 
     1.0000   1.0000   1.0000   1.0000   1.0000   1.0000   1.0000   1.0000
     1.0000   1.0000   1.0000   1.0000   1.0000   1.0000   1.0000   1.0000
     1.0000   1.0000   1.0000   1.0000   1.0000   1.0000   1.0000   1.0000
     1.0000   1.0000   1.0000   1.0000   1.0000   1.0000   1.0000   1.0000
     0.8997   0.8997   0.8997  -0.0353  -0.0353  -0.0353  -0.0335  -0.0335
    -0.0335   0.0000   0.0000   0.0000   0.0000   0.0000   0.0000   0.0000
     0.0000   0.0000

          k = 0.0000-0.2500 0.2500 (  1773 PWs)   bands (ev):

     5.3652   8.0285   8.3829   8.3900   8.3918   8.3959   8.4165   8.4297
     8.4654   9.5600   9.5605   9.5611   9.5613   9.6133   9.8469  10.3193
    10.4542  10.6134  10.7945  11.0939  11.0955  11.0979  11.1030  11.4676
    11.4812  11.5476  11.6743  11.6795  11.6816  11.6847  11.6926  11.8104
    11.8687  12.1002  12.2095  12.2211  12.2223  12.2258  12.2712  12.5617
    12.7755  12.9544  14.6065  14.6121  14.6141  14.6180  15.2746  19.9861
    20.8479  20.9808

     occupation numbers 
     1.0000   1.0000   1.0000   1.0000   1.0000   1.0000   1.0000   1.0000
     1.0000   1.0000   1.0000   1.0000   1.0000   1.0000   1.0000   1.0000
     1.0000   1.0000   1.0000   1.0000   1.0000   1.0000   1.0000   1.0000
     1.0000   1.0000   1.0000   1.0000   1.0000   1.0000   1.0000   1.0000
     1.0000   1.0000   1.0000   1.0000   1.0000   1.0000   1.0000   1.0123
     0.7327  -0.0277   0.0000   0.0000   0.0000   0.0000   0.0000   0.0000
     0.0000   0.0000

          k = 0.0000 0.5000-0.5000 (  1766 PWs)   bands (ev):

     6.9496   6.9519   8.7694   8.7757   8.9287   8.9292   8.9292   8.9428
     9.2849   9.2918   9.5755   9.5785   9.5798   9.5809   9.9556   9.9601
    10.2008  10.2021  10.2043  10.2045  10.4047  10.4099  10.8515  10.8569
    11.4376  11.4439  11.5053  11.5134  11.6071  11.6084  11.6181  11.6204
    11.6242  11.6285  11.7351  11.7433  12.0194  12.0383  12.0401  12.0403
    12.8580  12.8714  15.0249  15.0288  15.0374  15.0401  17.9564  17.9606
    20.4704  20.4831

     occupation numbers 
     1.0000   1.0000   1.0000   1.0000   1.0000   1.0000   1.0000   1.0000
     1.0000   1.0000   1.0000   1.0000   1.0000   1.0000   1.0000   1.0000
     1.0000   1.0000   1.0000   1.0000   1.0000   1.0000   1.0000   1.0000
     1.0000   1.0000   1.0000   1.0000   1.0000   1.0000   1.0000   1.0000
     1.0000   1.0000   1.0000   1.0000   1.0000   1.0000   1.0000   1.0000
     0.2447   0.1788   0.0000   0.0000   0.0000   0.0000   0.0000   0.0000
     0.0000   0.0000

          k =-0.2500 0.7500-0.5000 (  1758 PWs)   bands (ev):

     6.5016   8.0424   8.0536   8.8676   8.8926   8.8963   8.8975   8.9039
     9.0199   9.5116   9.6118   9.7165   9.7179   9.7860   9.7869  10.1558
    10.1636  10.1707  10.1712  10.2020  10.2507  10.2611  10.2668  10.9822
    11.4086  11.4646  11.4955  11.4984  11.5294  11.5311  11.7462  11.7713
    11.7828  11.8236  11.8919  11.8945  12.0182  12.0881  12.5259  12.5314
    12.5876  12.7127  12.7167  14.7135  16.1364  16.1456  17.6731  18.3320
    20.2191  21.5547

     occupation numbers 
     1.0000   1.0000   1.0000   1.0000   1.0000   1.0000   1.0000   1.0000
     1.0000   1.0000   1.0000   1.0000   1.0000   1.0000   1.0000   1.0000
     1.0000   1.0000   1.0000   1.0000   1.0000   1.0000   1.0000   1.0000
     1.0000   1.0000   1.0000   1.0000   1.0000   1.0000   1.0000   1.0000
     1.0000   1.0000   1.0000   1.0000   1.0000   1.0000   1.0053   1.0061
     1.0199   0.9760   0.9666   0.0000   0.0000   0.0000   0.0000   0.0000
     0.0000   0.0000

          k = 0.0000 0.0000 0.5000 (  1773 PWs)   bands (ev):

     5.9583   8.3901   8.4030   8.4030   8.4093   8.6361   8.6868   8.8192
     8.8263   9.4200   9.4200   9.9691   9.9706   9.9706   9.9719  10.3344
    10.3407  10.3407  10.3411  10.5063  10.5063  10.7945  10.8652  10.8652
    11.1643  11.4567  11.4602  11.4602  11.4621  11.7999  11.8092  11.8558
    11.8700  11.8791  11.9544  11.9544  12.3951  12.5062  12.5080  12.5080
    12.5150  13.3078  13.3115  13.3202  13.3202  16.8322  16.8322  17.6174
    20.1610  20.1625

     occupation numbers 
     1.0000   1.0000   1.0000   1.0000   1.0000   1.0000   1.0000   1.0000
     1.0000   1.0000   1.0000   1.0000   1.0000   1.0000   1.0000   1.0000
     1.0000   1.0000   1.0000   1.0000   1.0000   1.0000   1.0000   1.0000
     1.0000   1.0000   1.0000   1.0000   1.0000   1.0000   1.0000   1.0000
     1.0000   1.0000   1.0000   1.0000   1.0001   1.0031   1.0032   1.0032
     1.0039   0.0000   0.0000   0.0000   0.0000   0.0000   0.0000   0.0000
     0.0000   0.0000

          k = 0.0000 0.7500-0.2500 (  1780 PWs)   bands (ev):

     7.4346   7.4424   8.6089   8.6101   8.8854   8.8855   9.2482   9.2523
     9.3264   9.3305   9.6096   9.6130   9.7355   9.7375  10.0676  10.0679
    10.2706  10.2756  10.3103  10.3138  10.4360  10.4372  10.9189  10.9244
    11.0838  11.0886  11.1960  11.1987  11.3267  11.3329  11.5479  11.5560
    11.8302  11.8414  11.8773  11.8908  12.0902  12.0981  12.1316  12.1374
    12.3863  12.3972  13.3373  13.3485  15.1058  15.1087  17.7601  17.7610
    21.9241  21.9269

     occupation numbers 
     1.0000   1.0000   1.0000   1.0000   1.0000   1.0000   1.0000   1.0000
     1.0000   1.0000   1.0000   1.0000   1.0000   1.0000   1.0000   1.0000
     1.0000   1.0000   1.0000   1.0000   1.0000   1.0000   1.0000   1.0000
     1.0000   1.0000   1.0000   1.0000   1.0000   1.0000   1.0000   1.0000
     1.0000   1.0000   1.0000   1.0000   1.0000   1.0000   1.0000   1.0000
     1.0000   1.0001   0.0000   0.0000   0.0000   0.0000   0.0000   0.0000
     0.0000   0.0000

          k = 0.5000-0.5000 0.5000 (  1772 PWs)   bands (ev):

     7.9135   7.9364   7.9364   7.9364   9.4113   9.4113   9.4113   9.4127
     9.4127   9.4127   9.4189   9.4189   9.7836   9.7836   9.7836   9.7863
     9.7863   9.7863   9.7870   9.7870   9.8098   9.8100   9.8100   9.8100
    11.6727  11.6727  11.6869  11.6869  11.6869  11.6884  11.6884  11.6884
    12.1244  12.1244  12.1244  12.1311  12.1311  12.1358  12.1358  12.1358
    12.7413  12.7413  12.7413  12.7507  19.8023  19.8023  19.8023  19.8100
    19.8100  19.8226

     occupation numbers 
     1.0000   1.0000   1.0000   1.0000   1.0000   1.0000   1.0000   1.0000
     1.0000   1.0000   1.0000   1.0000   1.0000   1.0000   1.0000   1.0000
     1.0000   1.0000   1.0000   1.0000   1.0000   1.0000   1.0000   1.0000
     1.0000   1.0000   1.0000   1.0000   1.0000   1.0000   1.0000   1.0000
     1.0000   1.0000   1.0000   1.0000   1.0000   1.0000   1.0000   1.0000
     0.8909   0.8909   0.8909   0.8532   0.0000   0.0000   0.0000   0.0000
     0.0000   0.0000

          k = 0.0000 0.0000-1.0000 (  1830 PWs)   bands (ev):

     8.4157   8.4310   8.4310   8.4310   8.4523   8.4523   9.6686   9.6686
     9.6686   9.6725   9.6725   9.6725   9.9134   9.9134   9.9158   9.9181
     9.9181   9.9181  10.9000  10.9000  10.9000  10.9102  10.9102  10.9102
    10.9114  10.9114  10.9114  10.9126  10.9126  10.9126  11.5771  11.5771
    11.5771  11.5880  11.5885  11.5885  11.8721  11.8721  11.8867  11.8867
    12.9522  12.9522  12.9640  12.9751  12.9751  12.9751  21.3147  21.3188
    21.3196  21.3198

     occupation numbers 
     1.0000   1.0000   1.0000   1.0000   1.0000   1.0000   1.0000   1.0000
     1.0000   1.0000   1.0000   1.0000   1.0000   1.0000   1.0000   1.0000
     1.0000   1.0000   1.0000   1.0000   1.0000   1.0000   1.0000   1.0000
     1.0000   1.0000   1.0000   1.0000   1.0000   1.0000   1.0000   1.0000
     1.0000   1.0000   1.0000   1.0000   1.0000   1.0000   1.0000   1.0000
    -0.0262  -0.0262  -0.0325  -0.0351  -0.0351  -0.0351   0.0000   0.0000
     0.0000   0.0000

 ------ SPIN DOWN ----------


          k = 0.0000 0.0000 0.0000 (  1745 PWs)   bands (ev):

     4.8033   9.6053   9.6239   9.6239   9.6286   9.6286   9.6286  10.2617
    10.2617  11.6880  11.6880  11.6880  11.7005  11.7005  11.7005  12.9551
    12.9551  12.9551  13.5415  13.5415  13.5415  13.5570  13.5570  13.5570
    14.7336  14.7356  14.7356  14.7356  14.7398  14.7398  14.8495  14.8495
    15.1026  15.1027  15.1027  15.1027  15.1098  15.1098  15.5740  15.5740
    15.5740  15.8672  15.8672  15.8672  15.8706  15.8706  15.8706  21.4921
    21.4975  21.4975

     occupation numbers 
     1.0000   1.0000   1.0000   1.0000   1.0000   1.0000   1.0000   1.0000
     1.0000   1.0000   1.0000   1.0000   1.0000   1.0000   1.0000  -0.0282
    -0.0282  -0.0282   0.0000   0.0000   0.0000   0.0000   0.0000   0.0000
     0.0000   0.0000   0.0000   0.0000   0.0000   0.0000   0.0000   0.0000
     0.0000   0.0000   0.0000   0.0000   0.0000   0.0000   0.0000   0.0000
     0.0000   0.0000   0.0000   0.0000   0.0000   0.0000   0.0000   0.0000
     0.0000   0.0000

          k = 0.0000-0.2500 0.2500 (  1773 PWs)   bands (ev):

     5.4307   9.0291   9.8419   9.8489   9.8513   9.8607  10.0545  10.5034
    10.5194  11.7453  11.7506  11.7521  11.7553  11.8652  12.1041  12.4255
    12.5970  12.6022  12.6034  12.6056  12.6861  12.7550  12.8949  13.3141
    14.3173  14.6602  14.6658  14.6664  14.6677  14.6721  14.6745  14.7312
    14.8667  14.9029  15.0459  15.1982  15.1989  15.1989  15.2042  15.3522
    15.6166  15.8249  16.5469  16.5472  16.5480  16.5487  16.6485  21.4948
    21.5214  22.2842

     occupation numbers 
     1.0000   1.0000   1.0000   1.0000   1.0000   1.0000   1.0000   1.0000
     1.0000   1.0000   1.0000   1.0000   1.0000   1.0000   1.0000   1.0002
     1.0231   1.0249   1.0252   1.0260   1.0184   0.8346   0.0847   0.0000
     0.0000   0.0000   0.0000   0.0000   0.0000   0.0000   0.0000   0.0000
     0.0000   0.0000   0.0000   0.0000   0.0000   0.0000   0.0000   0.0000
     0.0000   0.0000   0.0000   0.0000   0.0000   0.0000   0.0000   0.0000
     0.0000   0.0000

          k = 0.0000 0.5000-0.5000 (  1766 PWs)   bands (ev):

     7.1317   7.1332  10.1868  10.1891  10.1930  10.2163  10.7284  10.7453
    11.2236  11.2421  11.5999  11.6016  11.6128  11.6216  12.0378  12.0406
    12.0450  12.0607  12.2899  12.3014  12.5861  12.5967  13.2344  13.2449
    13.9515  13.9607  14.2534  14.2607  14.5291  14.5346  14.5788  14.5796
    14.5833  14.5880  14.9326  14.9383  15.1222  15.1222  15.1239  15.1295
    15.7180  15.7228  17.0559  17.0577  17.0581  17.0595  19.0369  19.0409
    21.6938  21.7022

     occupation numbers 
     1.0000   1.0000   1.0000   1.0000   1.0000   1.0000   1.0000   1.0000
     1.0000   1.0000   1.0000   1.0000   1.0000   1.0000   1.0000   1.0000
     1.0000   1.0000   1.0000   1.0000   1.0195   1.0230  -0.0001   0.0000
     0.0000   0.0000   0.0000   0.0000   0.0000   0.0000   0.0000   0.0000
     0.0000   0.0000   0.0000   0.0000   0.0000   0.0000   0.0000   0.0000
     0.0000   0.0000   0.0000   0.0000   0.0000   0.0000   0.0000   0.0000
     0.0000   0.0000

          k =-0.2500 0.7500-0.5000 (  1758 PWs)   bands (ev):

     6.6081   8.5408   8.5524   9.9848  10.5470  10.5591  10.7838  10.7917
    10.9980  11.6251  11.6386  11.6632  11.6737  11.8114  11.9427  12.0318
    12.0365  12.2340  12.2415  12.3722  12.3738  12.5086  12.5650  13.3198
    14.0338  14.2590  14.2598  14.4396  14.4687  14.4704  14.6350  14.7649
    14.8694  14.9712  15.0367  15.0380  15.0558  15.0990  15.2973  15.2978
    15.3425  15.3450  15.3632  16.8467  17.7386  17.7434  19.0308  19.4694
    21.5536  22.7199

     occupation numbers 
     1.0000   1.0000   1.0000   1.0000   1.0000   1.0000   1.0000   1.0000
     1.0000   1.0000   1.0000   1.0000   1.0000   1.0000   1.0000   1.0000
     1.0000   1.0000   1.0000   1.0000   1.0000   1.0033   1.0131   0.0000
     0.0000   0.0000   0.0000   0.0000   0.0000   0.0000   0.0000   0.0000
     0.0000   0.0000   0.0000   0.0000   0.0000   0.0000   0.0000   0.0000
     0.0000   0.0000   0.0000   0.0000   0.0000   0.0000   0.0000   0.0000
     0.0000   0.0000

          k = 0.0000 0.0000 0.5000 (  1773 PWs)   bands (ev):

     6.0361   9.4603   9.4757   9.4757   9.4862  10.4512  10.4654  10.4820
    10.8830  11.4939  11.4939  12.2366  12.2366  12.2384  12.2479  12.2517
    12.2558  12.2558  12.2647  12.2899  12.2899  12.9350  12.9350  13.3208
    14.1415  14.2315  14.2318  14.2318  14.2355  14.5103  14.5103  14.9239
    14.9274  15.0952  15.1258  15.1304  15.1719  15.2866  15.2887  15.2887
    15.2908  15.7014  15.7023  15.7023  15.7025  18.2484  18.2484  18.6622
    21.5728  21.5746

     occupation numbers 
     1.0000   1.0000   1.0000   1.0000   1.0000   1.0000   1.0000   1.0000
     1.0000   1.0000   1.0000   1.0000   1.0000   1.0000   1.0000   1.0000
     1.0000   1.0000   1.0000   1.0000   1.0000  -0.0086  -0.0086   0.0000
     0.0000   0.0000   0.0000   0.0000   0.0000   0.0000   0.0000   0.0000
     0.0000   0.0000   0.0000   0.0000   0.0000   0.0000   0.0000   0.0000
     0.0000   0.0000   0.0000   0.0000   0.0000   0.0000   0.0000   0.0000
     0.0000   0.0000

          k = 0.0000 0.7500-0.2500 (  1780 PWs)   bands (ev):

     7.6608   7.6675   9.3377   9.3416  10.2764  10.2819  11.0283  11.0442
    11.4526  11.4658  11.5641  11.5654  11.6571  11.6715  12.0245  12.0277
    12.6299  12.6386  12.6540  12.6613  12.6838  12.6845  13.3135  13.3227
    13.8323  13.8410  13.8447  13.8496  13.8648  13.8653  14.1685  14.1757
    14.9165  14.9177  15.0191  15.0231  15.1156  15.1199  15.1472  15.1527
    15.2737  15.2757  15.8323  15.8336  16.8601  16.8628  19.2300  19.2305
    22.9358  22.9384

     occupation numbers 
     1.0000   1.0000   1.0000   1.0000   1.0000   1.0000   1.0000   1.0000
     1.0000   1.0000   1.0000   1.0000   1.0000   1.0000   1.0000   1.0000
     1.0332   1.0348   1.0351   1.0338   1.0207   1.0200   0.0000   0.0000
     0.0000   0.0000   0.0000   0.0000   0.0000   0.0000   0.0000   0.0000
     0.0000   0.0000   0.0000   0.0000   0.0000   0.0000   0.0000   0.0000
     0.0000   0.0000   0.0000   0.0000   0.0000   0.0000   0.0000   0.0000
     0.0000   0.0000

          k = 0.5000-0.5000 0.5000 (  1772 PWs)   bands (ev):

     8.1625   8.1828   8.1828   8.1828  11.3637  11.3637  11.3637  11.3640
    11.3640  11.3640  11.3858  11.3858  11.8755  11.8846  11.8846  11.8846
    12.0015  12.0015  12.0015  12.0039  12.0039  12.0179  12.0179  12.0179
    14.8256  14.8256  14.8256  14.8257  14.8257  14.8257  14.8352  14.8352
    14.8995  14.8995  14.8995  14.9018  14.9018  14.9058  14.9058  14.9058
    15.2729  15.2747  15.2747  15.2747  20.9936  20.9936  20.9946  21.0070
    21.0071  21.0071

     occupation numbers 
     1.0000   1.0000   1.0000   1.0000   1.0000   1.0000   1.0000   1.0000
     1.0000   1.0000   1.0000   1.0000   1.0000   1.0000   1.0000   1.0000
     1.0000   1.0000   1.0000   1.0000   1.0000   1.0000   1.0000   1.0000
     0.0000   0.0000   0.0000   0.0000   0.0000   0.0000   0.0000   0.0000
     0.0000   0.0000   0.0000   0.0000   0.0000   0.0000   0.0000   0.0000
     0.0000   0.0000   0.0000   0.0000   0.0000   0.0000   0.0000   0.0000
     0.0000   0.0000

          k = 0.0000 0.0000-1.0000 (  1830 PWs)   bands (ev):

     8.9730   8.9865   8.9865   8.9865   9.0109   9.0109  11.4362  11.4362
    11.4362  11.4530  11.4530  11.4530  12.4578  12.4578  12.4578  12.4599
    12.4764  12.4764  13.2943  13.2943  13.2943  13.2944  13.2944  13.2944
    13.2953  13.2953  13.2953  13.3125  13.3125  13.3125  14.2248  14.2248
    14.2252  14.2299  14.2299  14.2299  15.1494  15.1494  15.1540  15.1540
    15.6799  15.6823  15.6823  15.6832  15.6832  15.6832  22.3393  22.3434
    22.3434  22.3434

     occupation numbers 
     1.0000   1.0000   1.0000   1.0000   1.0000   1.0000   1.0000   1.0000
     1.0000   1.0000   1.0000   1.0000   1.0007   1.0007   1.0007   1.0007
     1.0012   1.0012   0.0000   0.0000   0.0000   0.0000   0.0000   0.0000
     0.0000   0.0000   0.0000   0.0000   0.0000   0.0000   0.0000   0.0000
     0.0000   0.0000   0.0000   0.0000   0.0000   0.0000   0.0000   0.0000
     0.0000   0.0000   0.0000   0.0000   0.0000   0.0000   0.0000   0.0000
     0.0000   0.0000

     the Fermi energy is    12.8146 ev

!    total energy              =    -446.35918616 Ry
     Harris-Foulkes estimate   =    -446.35918615 Ry
     estimated scf accuracy    <          1.1E-10 Ry

     The total energy is the sum of the following terms:

     one-electron contribution =      55.35835654 Ry
     hartree contribution      =      53.58718898 Ry
     xc contribution           =    -211.58109950 Ry
     ewald contribution        =    -343.77998637 Ry
     Hubbard energy            =       0.05500912 Ry
     smearing contrib. (-TS)   =       0.00134508 Ry

     total magnetization       =    19.56 Bohr mag/cell
     absolute magnetization    =    21.01 Bohr mag/cell

     convergence has been achieved in  12 iterations

     Writing output data file fe.save
 
     init_run     :      1.96s CPU      2.00s WALL (       1 calls)
     electrons    :     62.33s CPU     62.78s WALL (       1 calls)

     Called by init_run:
     wfcinit      :      0.13s CPU      0.13s WALL (       1 calls)
     potinit      :      0.27s CPU      0.28s WALL (       1 calls)

     Called by electrons:
     c_bands      :     41.67s CPU     41.94s WALL (      12 calls)
     sum_band     :     13.68s CPU     13.77s WALL (      12 calls)
     v_of_rho     :      1.69s CPU      1.76s WALL (      13 calls)
     v_h          :      0.04s CPU      0.05s WALL (      13 calls)
     v_xc         :      1.65s CPU      1.71s WALL (      13 calls)
     newd         :      5.50s CPU      5.53s WALL (      13 calls)
     mix_rho      :      0.16s CPU      0.17s WALL (      12 calls)

     Called by c_bands:
     init_us_2    :      0.22s CPU      0.24s WALL (     400 calls)
     cegterg      :     39.54s CPU     39.81s WALL (     192 calls)

     Called by sum_band:
     sum_band:bec :      0.11s CPU      0.10s WALL (     192 calls)
     addusdens    :      7.94s CPU      8.00s WALL (      12 calls)

     Called by *egterg:
     h_psi        :     24.35s CPU     24.58s WALL (     808 calls)
     s_psi        :      1.91s CPU      1.89s WALL (     824 calls)
     g_psi        :      0.19s CPU      0.19s WALL (     616 calls)
     cdiaghg      :      7.80s CPU      7.80s WALL (     792 calls)
     cegterg:over :      2.00s CPU      2.03s WALL (     616 calls)
     cegterg:upda :      1.22s CPU      1.22s WALL (     616 calls)
     cegterg:last :      0.87s CPU      0.86s WALL (     213 calls)

     Called by h_psi:
     h_psi:vloc   :     18.80s CPU     18.89s WALL (     808 calls)
     h_psi:vnl    :      3.90s CPU      3.95s WALL (     808 calls)
     add_vuspsi   :      1.88s CPU      1.91s WALL (     808 calls)
     vhpsi        :      1.61s CPU      1.69s WALL (     808 calls)

     General routines
     calbec       :      3.56s CPU      3.67s WALL (    2016 calls)
     fft          :      1.02s CPU      1.04s WALL (     391 calls)
     ffts         :      0.02s CPU      0.03s WALL (      50 calls)
     fftw         :     18.46s CPU     18.54s WALL (   58944 calls)
     interpolate  :      0.16s CPU      0.17s WALL (      50 calls)
     davcio       :      0.00s CPU      0.01s WALL (      48 calls)
 
     Parallel routines
     fft_scatter  :      4.08s CPU      4.21s WALL (   59385 calls)
     Hubbard U routines
     new_ns       :      0.30s CPU      0.32s WALL (      12 calls)
     vhpsi        :      1.61s CPU      1.69s WALL (     808 calls)
 
     PWSCF        :  1m 4.53s CPU     1m 5.04s WALL

 
   This run was terminated on:  17:46:21  30Jun2014            

=------------------------------------------------------------------------------=
   JOB DONE.
=------------------------------------------------------------------------------=
