
     Program PWSCF v.5.1 starts on 30Jun2014 at 17:42:17 

     This program is part of the open-source Quantum ESPRESSO suite
     for quantum simulation of materials; please cite
         "P. Giannozzi et al., J. Phys.:Condens. Matter 21 395502 (2009);
          URL http://www.quantum-espresso.org", 
     in publications or presentations arising from this work. More details at
     http://www.quantum-espresso.org/quote

     Parallel version (MPI), running on     4 processors
     R & G space division:  proc/nbgrp/npool/nimage =       4
     Waiting for input...
     Reading input from standard input

     Current dimensions of program PWSCF are:
     Max number of different atomic species (ntypx) = 10
     Max number of k-points (npk) =  40000
     Max angular momentum in pseudopotentials (lmaxx) =  3
               file Fe.pbe-nd-rrkjus.UPF: wavefunction(s)  4S renormalized
               file Fe.pbe-nd-rrkjus.UPF: wavefunction(s)  4S renormalized

     Subspace diagonalization in iterative solution of the eigenvalue problem:
     a serial algorithm will be used

 
     Parallelization info
     --------------------
     sticks:   dense  smooth     PW     G-vecs:    dense   smooth      PW
     Min         595     199     60                18379     3540     586
     Max         596     200     61                18382     3545     587
     Sum        2383     797    241                73525    14171    2347
 
     Generating pointlists ...
     new r_m :   0.1786 (alat units)  1.9362 (a.u.) for type    1
     new r_m :   0.1786 (alat units)  1.9362 (a.u.) for type    2


     bravais-lattice index     =            3
     lattice parameter (alat)  =      10.8400  a.u.
     unit-cell volume          =     636.8804 (a.u.)^3
     number of atoms/cell      =            8
     number of atomic types    =            2
     number of electrons       =        64.00
     number of Kohn-Sham states=           50
     kinetic-energy cutoff     =      30.0000  Ry
     charge density cutoff     =     360.0000  Ry
     convergence threshold     =      1.0E-09
     mixing beta               =       0.3000
     number of iterations used =            8  plain     mixing
     Exchange-correlation      =  SLA  PW   PBE  PBE ( 1  4  3  4 0)

     celldm(1)=  10.840000  celldm(2)=   0.000000  celldm(3)=   0.000000
     celldm(4)=   0.000000  celldm(5)=   0.000000  celldm(6)=   0.000000

     crystal axes: (cart. coord. in units of alat)
               a(1) = (   0.500000   0.500000   0.500000 )  
               a(2) = (  -0.500000   0.500000   0.500000 )  
               a(3) = (  -0.500000  -0.500000   0.500000 )  

     reciprocal axes: (cart. coord. in units 2 pi/alat)
               b(1) = (  1.000000  0.000000  1.000000 )  
               b(2) = ( -1.000000  1.000000  0.000000 )  
               b(3) = (  0.000000 -1.000000  1.000000 )  


     PseudoPot. # 1 for Fe read from file:
     ../pseudo/Fe.pbe-nd-rrkjus.UPF
     MD5 check sum: 23c640529ef232ac9996b4ec1b0ce2fd
     Pseudo is Ultrasoft + core correction, Zval =  8.0
     Generated by new atomic code, or converted to UPF format
     Using radial grid of  957 points,  6 beta functions with: 
                l(1) =   0
                l(2) =   0
                l(3) =   1
                l(4) =   1
                l(5) =   2
                l(6) =   2
     Q(r) pseudized with 0 coefficients 


     PseudoPot. # 2 for Fe read from file:
     ../pseudo/Fe.pbe-nd-rrkjus.UPF
     MD5 check sum: 23c640529ef232ac9996b4ec1b0ce2fd
     Pseudo is Ultrasoft + core correction, Zval =  8.0
     Generated by new atomic code, or converted to UPF format
     Using radial grid of  957 points,  6 beta functions with: 
                l(1) =   0
                l(2) =   0
                l(3) =   1
                l(4) =   1
                l(5) =   2
                l(6) =   2
     Q(r) pseudized with 0 coefficients 


     atomic species   valence    mass     pseudopotential
        Fe1            8.00     1.00000     Fe( 1.00)
        Fe             8.00     1.00000     Fe( 1.00)

     Starting magnetic structure 
     atomic species   magnetization
        Fe1          0.600
        Fe           0.600


     Simplified LDA+U calculation (l_max = 2) with parameters (eV):
     atomic species    L          U    alpha       J0     beta
        Fe1            2     0.0000  -0.0500   0.0000   0.0000
        Fe             2     0.0000   0.0000   0.0000   0.0000



     48 Sym. Ops., with inversion, found


                                    s                        frac. trans.

      isym =  1     identity                                     

 cryst.   s( 1) = (     1          0          0      )
                  (     0          1          0      )
                  (     0          0          1      )

 cart.    s( 1) = (  1.0000000  0.0000000  0.0000000 )
                  (  0.0000000  1.0000000  0.0000000 )
                  (  0.0000000  0.0000000  1.0000000 )


      isym =  2     180 deg rotation - cart. axis [0,0,1]        

 cryst.   s( 2) = (     0          0          1      )
                  (     1         -1          1      )
                  (     1          0          0      )

 cart.    s( 2) = ( -1.0000000  0.0000000  0.0000000 )
                  (  0.0000000 -1.0000000  0.0000000 )
                  (  0.0000000  0.0000000  1.0000000 )


      isym =  3     180 deg rotation - cart. axis [0,1,0]        

 cryst.   s( 3) = (    -1          1         -1      )
                  (     0          0         -1      )
                  (     0         -1          0      )

 cart.    s( 3) = ( -1.0000000  0.0000000  0.0000000 )
                  (  0.0000000  1.0000000  0.0000000 )
                  (  0.0000000  0.0000000 -1.0000000 )


      isym =  4     180 deg rotation - cart. axis [1,0,0]        

 cryst.   s( 4) = (     0         -1          0      )
                  (    -1          0          0      )
                  (    -1          1         -1      )

 cart.    s( 4) = (  1.0000000  0.0000000  0.0000000 )
                  (  0.0000000 -1.0000000  0.0000000 )
                  (  0.0000000  0.0000000 -1.0000000 )


      isym =  5     180 deg rotation - cart. axis [1,1,0]        

 cryst.   s( 5) = (     0          0         -1      )
                  (     0         -1          0      )
                  (    -1          0          0      )

 cart.    s( 5) = (  0.0000000  1.0000000  0.0000000 )
                  (  1.0000000  0.0000000  0.0000000 )
                  (  0.0000000  0.0000000 -1.0000000 )


      isym =  6     180 deg rotation - cart. axis [1,-1,0]       

 cryst.   s( 6) = (    -1          0          0      )
                  (    -1          1         -1      )
                  (     0          0         -1      )

 cart.    s( 6) = (  0.0000000 -1.0000000  0.0000000 )
                  ( -1.0000000  0.0000000  0.0000000 )
                  (  0.0000000  0.0000000 -1.0000000 )


      isym =  7      90 deg rotation - cart. axis [0,0,-1]       

 cryst.   s( 7) = (     1         -1          1      )
                  (     1          0          0      )
                  (     0          1          0      )

 cart.    s( 7) = (  0.0000000  1.0000000  0.0000000 )
                  ( -1.0000000  0.0000000  0.0000000 )
                  (  0.0000000  0.0000000  1.0000000 )


      isym =  8      90 deg rotation - cart. axis [0,0,1]        

 cryst.   s( 8) = (     0          1          0      )
                  (     0          0          1      )
                  (     1         -1          1      )

 cart.    s( 8) = (  0.0000000 -1.0000000  0.0000000 )
                  (  1.0000000  0.0000000  0.0000000 )
                  (  0.0000000  0.0000000  1.0000000 )


      isym =  9     180 deg rotation - cart. axis [1,0,1]        

 cryst.   s( 9) = (     1         -1          1      )
                  (     0         -1          0      )
                  (     0          0         -1      )

 cart.    s( 9) = (  0.0000000  0.0000000  1.0000000 )
                  (  0.0000000 -1.0000000  0.0000000 )
                  (  1.0000000  0.0000000  0.0000000 )


      isym = 10     180 deg rotation - cart. axis [-1,0,1]       

 cryst.   s(10) = (    -1          0          0      )
                  (     0          0          1      )
                  (     0          1          0      )

 cart.    s(10) = (  0.0000000  0.0000000 -1.0000000 )
                  (  0.0000000 -1.0000000  0.0000000 )
                  ( -1.0000000  0.0000000  0.0000000 )


      isym = 11      90 deg rotation - cart. axis [0,1,0]        

 cryst.   s(11) = (     0          0         -1      )
                  (     1          0          0      )
                  (     1         -1          1      )

 cart.    s(11) = (  0.0000000  0.0000000  1.0000000 )
                  (  0.0000000  1.0000000  0.0000000 )
                  ( -1.0000000  0.0000000  0.0000000 )


      isym = 12      90 deg rotation - cart. axis [0,-1,0]       

 cryst.   s(12) = (     0          1          0      )
                  (    -1          1         -1      )
                  (    -1          0          0      )

 cart.    s(12) = (  0.0000000  0.0000000 -1.0000000 )
                  (  0.0000000  1.0000000  0.0000000 )
                  (  1.0000000  0.0000000  0.0000000 )


      isym = 13     180 deg rotation - cart. axis [0,1,1]        

 cryst.   s(13) = (     0          1          0      )
                  (     1          0          0      )
                  (     0          0         -1      )

 cart.    s(13) = ( -1.0000000  0.0000000  0.0000000 )
                  (  0.0000000  0.0000000  1.0000000 )
                  (  0.0000000  1.0000000  0.0000000 )


      isym = 14     180 deg rotation - cart. axis [0,1,-1]       

 cryst.   s(14) = (    -1          0          0      )
                  (     0         -1          0      )
                  (     1         -1          1      )

 cart.    s(14) = ( -1.0000000  0.0000000  0.0000000 )
                  (  0.0000000  0.0000000 -1.0000000 )
                  (  0.0000000 -1.0000000  0.0000000 )


      isym = 15      90 deg rotation - cart. axis [-1,0,0]       

 cryst.   s(15) = (     0          0         -1      )
                  (    -1          1         -1      )
                  (     0          1          0      )

 cart.    s(15) = (  1.0000000  0.0000000  0.0000000 )
                  (  0.0000000  0.0000000  1.0000000 )
                  (  0.0000000 -1.0000000  0.0000000 )


      isym = 16      90 deg rotation - cart. axis [1,0,0]        

 cryst.   s(16) = (     1         -1          1      )
                  (     0          0          1      )
                  (    -1          0          0      )

 cart.    s(16) = (  1.0000000  0.0000000  0.0000000 )
                  (  0.0000000  0.0000000 -1.0000000 )
                  (  0.0000000  1.0000000  0.0000000 )


      isym = 17     120 deg rotation - cart. axis [-1,-1,-1]     

 cryst.   s(17) = (     1          0          0      )
                  (     0          0         -1      )
                  (    -1          1         -1      )

 cart.    s(17) = (  0.0000000  1.0000000  0.0000000 )
                  (  0.0000000  0.0000000  1.0000000 )
                  (  1.0000000  0.0000000  0.0000000 )


      isym = 18     120 deg rotation - cart. axis [-1,1,1]       

 cryst.   s(18) = (    -1          1         -1      )
                  (     0          1          0      )
                  (     1          0          0      )

 cart.    s(18) = (  0.0000000 -1.0000000  0.0000000 )
                  (  0.0000000  0.0000000  1.0000000 )
                  ( -1.0000000  0.0000000  0.0000000 )


      isym = 19     120 deg rotation - cart. axis [1,1,-1]       

 cryst.   s(19) = (     0         -1          0      )
                  (     1         -1          1      )
                  (     0          0          1      )

 cart.    s(19) = (  0.0000000  1.0000000  0.0000000 )
                  (  0.0000000  0.0000000 -1.0000000 )
                  ( -1.0000000  0.0000000  0.0000000 )


      isym = 20     120 deg rotation - cart. axis [1,-1,1]       

 cryst.   s(20) = (     0          0          1      )
                  (    -1          0          0      )
                  (     0         -1          0      )

 cart.    s(20) = (  0.0000000 -1.0000000  0.0000000 )
                  (  0.0000000  0.0000000 -1.0000000 )
                  (  1.0000000  0.0000000  0.0000000 )


      isym = 21     120 deg rotation - cart. axis [1,1,1]        

 cryst.   s(21) = (     1          0          0      )
                  (     1         -1          1      )
                  (     0         -1          0      )

 cart.    s(21) = (  0.0000000  0.0000000  1.0000000 )
                  (  1.0000000  0.0000000  0.0000000 )
                  (  0.0000000  1.0000000  0.0000000 )


      isym = 22     120 deg rotation - cart. axis [-1,1,-1]      

 cryst.   s(22) = (     0         -1          0      )
                  (     0          0         -1      )
                  (     1          0          0      )

 cart.    s(22) = (  0.0000000  0.0000000  1.0000000 )
                  ( -1.0000000  0.0000000  0.0000000 )
                  (  0.0000000 -1.0000000  0.0000000 )


      isym = 23     120 deg rotation - cart. axis [1,-1,-1]      

 cryst.   s(23) = (     0          0          1      )
                  (     0          1          0      )
                  (    -1          1         -1      )

 cart.    s(23) = (  0.0000000  0.0000000 -1.0000000 )
                  ( -1.0000000  0.0000000  0.0000000 )
                  (  0.0000000  1.0000000  0.0000000 )


      isym = 24     120 deg rotation - cart. axis [-1,-1,1]      

 cryst.   s(24) = (    -1          1         -1      )
                  (    -1          0          0      )
                  (     0          0          1      )

 cart.    s(24) = (  0.0000000  0.0000000 -1.0000000 )
                  (  1.0000000  0.0000000  0.0000000 )
                  (  0.0000000 -1.0000000  0.0000000 )


      isym = 25     inversion                                    

 cryst.   s(25) = (    -1          0          0      )
                  (     0         -1          0      )
                  (     0          0         -1      )

 cart.    s(25) = ( -1.0000000  0.0000000  0.0000000 )
                  (  0.0000000 -1.0000000  0.0000000 )
                  (  0.0000000  0.0000000 -1.0000000 )


      isym = 26     inv. 180 deg rotation - cart. axis [0,0,1]   

 cryst.   s(26) = (     0          0         -1      )
                  (    -1          1         -1      )
                  (    -1          0          0      )

 cart.    s(26) = (  1.0000000  0.0000000  0.0000000 )
                  (  0.0000000  1.0000000  0.0000000 )
                  (  0.0000000  0.0000000 -1.0000000 )


      isym = 27     inv. 180 deg rotation - cart. axis [0,1,0]   

 cryst.   s(27) = (     1         -1          1      )
                  (     0          0          1      )
                  (     0          1          0      )

 cart.    s(27) = (  1.0000000  0.0000000  0.0000000 )
                  (  0.0000000 -1.0000000  0.0000000 )
                  (  0.0000000  0.0000000  1.0000000 )


      isym = 28     inv. 180 deg rotation - cart. axis [1,0,0]   

 cryst.   s(28) = (     0          1          0      )
                  (     1          0          0      )
                  (     1         -1          1      )

 cart.    s(28) = ( -1.0000000  0.0000000  0.0000000 )
                  (  0.0000000  1.0000000  0.0000000 )
                  (  0.0000000  0.0000000  1.0000000 )


      isym = 29     inv. 180 deg rotation - cart. axis [1,1,0]   

 cryst.   s(29) = (     0          0          1      )
                  (     0          1          0      )
                  (     1          0          0      )

 cart.    s(29) = (  0.0000000 -1.0000000  0.0000000 )
                  ( -1.0000000  0.0000000  0.0000000 )
                  (  0.0000000  0.0000000  1.0000000 )


      isym = 30     inv. 180 deg rotation - cart. axis [1,-1,0]  

 cryst.   s(30) = (     1          0          0      )
                  (     1         -1          1      )
                  (     0          0          1      )

 cart.    s(30) = (  0.0000000  1.0000000  0.0000000 )
                  (  1.0000000  0.0000000  0.0000000 )
                  (  0.0000000  0.0000000  1.0000000 )


      isym = 31     inv.  90 deg rotation - cart. axis [0,0,-1]  

 cryst.   s(31) = (    -1          1         -1      )
                  (    -1          0          0      )
                  (     0         -1          0      )

 cart.    s(31) = (  0.0000000 -1.0000000  0.0000000 )
                  (  1.0000000  0.0000000  0.0000000 )
                  (  0.0000000  0.0000000 -1.0000000 )


      isym = 32     inv.  90 deg rotation - cart. axis [0,0,1]   

 cryst.   s(32) = (     0         -1          0      )
                  (     0          0         -1      )
                  (    -1          1         -1      )

 cart.    s(32) = (  0.0000000  1.0000000  0.0000000 )
                  ( -1.0000000  0.0000000  0.0000000 )
                  (  0.0000000  0.0000000 -1.0000000 )


      isym = 33     inv. 180 deg rotation - cart. axis [1,0,1]   

 cryst.   s(33) = (    -1          1         -1      )
                  (     0          1          0      )
                  (     0          0          1      )

 cart.    s(33) = (  0.0000000  0.0000000 -1.0000000 )
                  (  0.0000000  1.0000000  0.0000000 )
                  ( -1.0000000  0.0000000  0.0000000 )


      isym = 34     inv. 180 deg rotation - cart. axis [-1,0,1]  

 cryst.   s(34) = (     1          0          0      )
                  (     0          0         -1      )
                  (     0         -1          0      )

 cart.    s(34) = (  0.0000000  0.0000000  1.0000000 )
                  (  0.0000000  1.0000000  0.0000000 )
                  (  1.0000000  0.0000000  0.0000000 )


      isym = 35     inv.  90 deg rotation - cart. axis [0,1,0]   

 cryst.   s(35) = (     0          0          1      )
                  (    -1          0          0      )
                  (    -1          1         -1      )

 cart.    s(35) = (  0.0000000  0.0000000 -1.0000000 )
                  (  0.0000000 -1.0000000  0.0000000 )
                  (  1.0000000  0.0000000  0.0000000 )


      isym = 36     inv.  90 deg rotation - cart. axis [0,-1,0]  

 cryst.   s(36) = (     0         -1          0      )
                  (     1         -1          1      )
                  (     1          0          0      )

 cart.    s(36) = (  0.0000000  0.0000000  1.0000000 )
                  (  0.0000000 -1.0000000  0.0000000 )
                  ( -1.0000000  0.0000000  0.0000000 )


      isym = 37     inv. 180 deg rotation - cart. axis [0,1,1]   

 cryst.   s(37) = (     0         -1          0      )
                  (    -1          0          0      )
                  (     0          0          1      )

 cart.    s(37) = (  1.0000000  0.0000000  0.0000000 )
                  (  0.0000000  0.0000000 -1.0000000 )
                  (  0.0000000 -1.0000000  0.0000000 )


      isym = 38     inv. 180 deg rotation - cart. axis [0,1,-1]  

 cryst.   s(38) = (     1          0          0      )
                  (     0          1          0      )
                  (    -1          1         -1      )

 cart.    s(38) = (  1.0000000  0.0000000  0.0000000 )
                  (  0.0000000  0.0000000  1.0000000 )
                  (  0.0000000  1.0000000  0.0000000 )


      isym = 39     inv.  90 deg rotation - cart. axis [-1,0,0]  

 cryst.   s(39) = (     0          0          1      )
                  (     1         -1          1      )
                  (     0         -1          0      )

 cart.    s(39) = ( -1.0000000  0.0000000  0.0000000 )
                  (  0.0000000  0.0000000 -1.0000000 )
                  (  0.0000000  1.0000000  0.0000000 )


      isym = 40     inv.  90 deg rotation - cart. axis [1,0,0]   

 cryst.   s(40) = (    -1          1         -1      )
                  (     0          0         -1      )
                  (     1          0          0      )

 cart.    s(40) = ( -1.0000000  0.0000000  0.0000000 )
                  (  0.0000000  0.0000000  1.0000000 )
                  (  0.0000000 -1.0000000  0.0000000 )


      isym = 41     inv. 120 deg rotation - cart. axis [-1,-1,-1]

 cryst.   s(41) = (    -1          0          0      )
                  (     0          0          1      )
                  (     1         -1          1      )

 cart.    s(41) = (  0.0000000 -1.0000000  0.0000000 )
                  (  0.0000000  0.0000000 -1.0000000 )
                  ( -1.0000000  0.0000000  0.0000000 )


      isym = 42     inv. 120 deg rotation - cart. axis [-1,1,1]  

 cryst.   s(42) = (     1         -1          1      )
                  (     0         -1          0      )
                  (    -1          0          0      )

 cart.    s(42) = (  0.0000000  1.0000000  0.0000000 )
                  (  0.0000000  0.0000000 -1.0000000 )
                  (  1.0000000  0.0000000  0.0000000 )


      isym = 43     inv. 120 deg rotation - cart. axis [1,1,-1]  

 cryst.   s(43) = (     0          1          0      )
                  (    -1          1         -1      )
                  (     0          0         -1      )

 cart.    s(43) = (  0.0000000 -1.0000000  0.0000000 )
                  (  0.0000000  0.0000000  1.0000000 )
                  (  1.0000000  0.0000000  0.0000000 )


      isym = 44     inv. 120 deg rotation - cart. axis [1,-1,1]  

 cryst.   s(44) = (     0          0         -1      )
                  (     1          0          0      )
                  (     0          1          0      )

 cart.    s(44) = (  0.0000000  1.0000000  0.0000000 )
                  (  0.0000000  0.0000000  1.0000000 )
                  ( -1.0000000  0.0000000  0.0000000 )


      isym = 45     inv. 120 deg rotation - cart. axis [1,1,1]   

 cryst.   s(45) = (    -1          0          0      )
                  (    -1          1         -1      )
                  (     0          1          0      )

 cart.    s(45) = (  0.0000000  0.0000000 -1.0000000 )
                  ( -1.0000000  0.0000000  0.0000000 )
                  (  0.0000000 -1.0000000  0.0000000 )


      isym = 46     inv. 120 deg rotation - cart. axis [-1,1,-1] 

 cryst.   s(46) = (     0          1          0      )
                  (     0          0          1      )
                  (    -1          0          0      )

 cart.    s(46) = (  0.0000000  0.0000000 -1.0000000 )
                  (  1.0000000  0.0000000  0.0000000 )
                  (  0.0000000  1.0000000  0.0000000 )


      isym = 47     inv. 120 deg rotation - cart. axis [1,-1,-1] 

 cryst.   s(47) = (     0          0         -1      )
                  (     0         -1          0      )
                  (     1         -1          1      )

 cart.    s(47) = (  0.0000000  0.0000000  1.0000000 )
                  (  1.0000000  0.0000000  0.0000000 )
                  (  0.0000000 -1.0000000  0.0000000 )


      isym = 48     inv. 120 deg rotation - cart. axis [-1,-1,1] 

 cryst.   s(48) = (     1         -1          1      )
                  (     1          0          0      )
                  (     0          0         -1      )

 cart.    s(48) = (  0.0000000  0.0000000  1.0000000 )
                  ( -1.0000000  0.0000000  0.0000000 )
                  (  0.0000000  1.0000000  0.0000000 )


     point group O_h (m-3m) 
     there are 10 classes
     the character table:

       E     8C3   6C2'  6C4   3C2   i     6S4   8S6   3s_h  6s_d 
A_1g   1.00  1.00  1.00  1.00  1.00  1.00  1.00  1.00  1.00  1.00
A_2g   1.00  1.00 -1.00 -1.00  1.00  1.00 -1.00  1.00  1.00 -1.00
E_g    2.00 -1.00  0.00  0.00  2.00  2.00  0.00 -1.00  2.00  0.00
T_1g   3.00  0.00 -1.00  1.00 -1.00  3.00  1.00  0.00 -1.00 -1.00
T_2g   3.00  0.00  1.00 -1.00 -1.00  3.00 -1.00  0.00 -1.00  1.00
A_1u   1.00  1.00  1.00  1.00  1.00 -1.00 -1.00 -1.00 -1.00 -1.00
A_2u   1.00  1.00 -1.00 -1.00  1.00 -1.00  1.00 -1.00 -1.00  1.00
E_u    2.00 -1.00  0.00  0.00  2.00 -2.00  0.00  1.00 -2.00  0.00
T_1u   3.00  0.00 -1.00  1.00 -1.00 -3.00 -1.00  0.00  1.00  1.00
T_2u   3.00  0.00  1.00 -1.00 -1.00 -3.00  1.00  0.00  1.00 -1.00

     the symmetry operations in each class:
     E        1
     3C2      2    4    3
     6C2'     5    6   14   13   10    9
     6C4      7    8   15   16   12   11
     8C3     17   19   20   18   24   21   22   23
     i       25
     3s_h    26   28   27
     6s_d    29   30   38   37   34   33
     6S4     31   32   39   40   36   35
     8S6     41   43   44   42   48   45   46   47

   Cartesian axes

     site n.     atom                  positions (alat units)
         1           Fe1 tau(   1) = (   0.0000000   0.0000000   0.0000000  )
         2           Fe  tau(   2) = (   0.2500000   0.2500000   0.2500000  )
         3           Fe  tau(   3) = (  -0.2500000   0.2500000   0.2500000  )
         4           Fe  tau(   4) = (  -0.2500000  -0.2500000   0.2500000  )
         5           Fe  tau(   5) = (   0.0000000   0.5000000   0.5000000  )
         6           Fe  tau(   6) = (  -0.5000000   0.0000000   0.5000000  )
         7           Fe  tau(   7) = (   0.0000000   0.0000000   0.5000000  )
         8           Fe  tau(   8) = (  -0.2500000   0.2500000   0.7500000  )

   Crystallographic axes

     site n.     atom                  positions (cryst. coord.)
         1           Fe1 tau(   1) = (  0.0000000  0.0000000  0.0000000  )
         2           Fe  tau(   2) = (  0.5000000  0.0000000  0.0000000  )
         3           Fe  tau(   3) = (  0.0000000  0.5000000  0.0000000  )
         4           Fe  tau(   4) = (  0.0000000  0.0000000  0.5000000  )
         5           Fe  tau(   5) = (  0.5000000  0.5000000  0.0000000  )
         6           Fe  tau(   6) = (  0.0000000  0.5000000  0.5000000  )
         7           Fe  tau(   7) = (  0.5000000  0.0000000  0.5000000  )
         8           Fe  tau(   8) = (  0.5000000  0.5000000  0.5000000  )

     number of k points=    16  Methfessel-Paxton smearing, width (Ry)=  0.0100
                       cart. coord. in units 2pi/alat
        k(    1) = (   0.0000000   0.0000000   0.0000000), wk =   0.0156250
        k(    2) = (   0.0000000  -0.2500000   0.2500000), wk =   0.1875000
        k(    3) = (   0.0000000   0.5000000  -0.5000000), wk =   0.0937500
        k(    4) = (  -0.2500000   0.7500000  -0.5000000), wk =   0.3750000
        k(    5) = (   0.0000000   0.0000000   0.5000000), wk =   0.0937500
        k(    6) = (   0.0000000   0.7500000  -0.2500000), wk =   0.1875000
        k(    7) = (   0.5000000  -0.5000000   0.5000000), wk =   0.0312500
        k(    8) = (   0.0000000   0.0000000  -1.0000000), wk =   0.0156250
        k(    9) = (   0.0000000   0.0000000   0.0000000), wk =   0.0156250
        k(   10) = (   0.0000000  -0.2500000   0.2500000), wk =   0.1875000
        k(   11) = (   0.0000000   0.5000000  -0.5000000), wk =   0.0937500
        k(   12) = (  -0.2500000   0.7500000  -0.5000000), wk =   0.3750000
        k(   13) = (   0.0000000   0.0000000   0.5000000), wk =   0.0937500
        k(   14) = (   0.0000000   0.7500000  -0.2500000), wk =   0.1875000
        k(   15) = (   0.5000000  -0.5000000   0.5000000), wk =   0.0312500
        k(   16) = (   0.0000000   0.0000000  -1.0000000), wk =   0.0156250

                       cryst. coord.
        k(    1) = (   0.0000000   0.0000000   0.0000000), wk =   0.0156250
        k(    2) = (   0.0000000   0.0000000   0.2500000), wk =   0.1875000
        k(    3) = (   0.0000000   0.0000000  -0.5000000), wk =   0.0937500
        k(    4) = (   0.0000000   0.2500000  -0.5000000), wk =   0.3750000
        k(    5) = (   0.2500000   0.2500000   0.2500000), wk =   0.0937500
        k(    6) = (   0.2500000   0.2500000  -0.5000000), wk =   0.1875000
        k(    7) = (   0.2500000  -0.2500000   0.2500000), wk =   0.0312500
        k(    8) = (  -0.5000000  -0.5000000  -0.5000000), wk =   0.0156250
        k(    9) = (   0.0000000   0.0000000   0.0000000), wk =   0.0156250
        k(   10) = (   0.0000000   0.0000000   0.2500000), wk =   0.1875000
        k(   11) = (   0.0000000   0.0000000  -0.5000000), wk =   0.0937500
        k(   12) = (   0.0000000   0.2500000  -0.5000000), wk =   0.3750000
        k(   13) = (   0.2500000   0.2500000   0.2500000), wk =   0.0937500
        k(   14) = (   0.2500000   0.2500000  -0.5000000), wk =   0.1875000
        k(   15) = (   0.2500000  -0.2500000   0.2500000), wk =   0.0312500
        k(   16) = (  -0.5000000  -0.5000000  -0.5000000), wk =   0.0156250

     Dense  grid:    73525 G-vectors     FFT dimensions: (  60,  60,  60)

     Smooth grid:    14171 G-vectors     FFT dimensions: (  36,  36,  36)

     Largest allocated arrays     est. size (Mb)     dimensions
        Kohn-Sham Wavefunctions         0.34 Mb     (     450,   50)
        Atomic Hubbard wavefuncts       0.27 Mb     (     450,   40)
        NL pseudopotentials             0.99 Mb     (     450,  144)
        Each V/rho on FFT grid          1.65 Mb     (   54000,   2)
        Each G-vector array             0.14 Mb     (   18382)
        G-vector shells                 0.00 Mb     (     490)
     Largest temporary arrays     est. size (Mb)     dimensions
        Auxiliary wavefunctions         1.37 Mb     (     450,  200)
        Each subspace H/S matrix        0.61 Mb     (     200,  200)
        Each <psi_i|beta_j> matrix      0.11 Mb     (     144,   50)
        Arrays for rho mixing           6.59 Mb     (   54000,    8)

     The initial density is read from file :
     ./temp/fe.save/charge-density.dat

 --- in v_hubbard ---
Hubbard energy   -0.0276
 -------
     Number of +U iterations with fixed ns =  0
     Starting occupations:
 --- enter write_ns ---
 LDA+U parameters:
U( 1)     =  0.00000000
alpha( 1) = -0.05000000
U( 2)     =  0.00000000
alpha( 2) =  0.00000000
atom    1   Tr[ns(na)] (up, down, total) =   4.88168  2.63170  7.51338
   spin  1
    eigenvalues: 
  0.969  0.969  0.969  0.987  0.987
    eigenvectors:
  0.000  0.000  0.000  0.713  0.287
  0.071  0.313  0.616  0.000  0.000
  0.362  0.291  0.347  0.000  0.000
  0.000  0.000  0.000  0.287  0.713
  0.567  0.396  0.037  0.000  0.000
    occupations:
  0.987  0.000  0.000  0.000  0.000
  0.000  0.969  0.000  0.000  0.000
  0.000  0.000  0.969  0.000  0.000
  0.000  0.000  0.000  0.987  0.000
  0.000  0.000  0.000  0.000  0.969
   spin  2
    eigenvalues: 
  0.447  0.447  0.579  0.579  0.579
    eigenvectors:
  0.760  0.240  0.000  0.000  0.000
  0.000  0.000  0.079  0.543  0.377
  0.000  0.000  0.365  0.130  0.504
  0.240  0.760  0.000  0.000  0.000
  0.000  0.000  0.555  0.326  0.118
    occupations:
  0.447  0.000  0.000  0.000  0.000
  0.000  0.579  0.000  0.000  0.000
  0.000  0.000  0.579  0.000  0.000
  0.000  0.000  0.000  0.447  0.000
  0.000  0.000  0.000  0.000  0.579
atomic mag. moment =     2.249974
atom    2   Tr[ns(na)] (up, down, total) =   4.88168  2.63168  7.51337
   spin  1
    eigenvalues: 
  0.969  0.969  0.969  0.987  0.987
    eigenvectors:
  0.000  0.000  0.000  0.588  0.412
  0.333  0.404  0.262  0.000  0.000
  0.333  0.016  0.651  0.000  0.000
  0.000  0.000  0.000  0.412  0.588
  0.333  0.580  0.087  0.000  0.000
    occupations:
  0.987  0.000  0.000  0.000  0.000
  0.000  0.969  0.000  0.000  0.000
  0.000  0.000  0.969  0.000  0.000
  0.000  0.000  0.000  0.987  0.000
  0.000  0.000  0.000  0.000  0.969
   spin  2
    eigenvalues: 
  0.447  0.447  0.579  0.579  0.579
    eigenvectors:
  0.496  0.504  0.000  0.000  0.000
  0.000  0.000  0.381  0.286  0.333
  0.000  0.000  0.024  0.643  0.333
  0.504  0.496  0.000  0.000  0.000
  0.000  0.000  0.595  0.071  0.333
    occupations:
  0.447  0.000  0.000  0.000  0.000
  0.000  0.579  0.000  0.000  0.000
  0.000  0.000  0.579  0.000  0.000
  0.000  0.000  0.000  0.447  0.000
  0.000  0.000  0.000  0.000  0.579
atomic mag. moment =     2.250002
atom    3   Tr[ns(na)] (up, down, total) =   4.88168  2.63168  7.51337
   spin  1
    eigenvalues: 
  0.969  0.969  0.969  0.987  0.987
    eigenvectors:
  0.000  0.000  0.000  0.567  0.433
  0.333  0.011  0.655  0.000  0.000
  0.333  0.569  0.098  0.000  0.000
  0.000  0.000  0.000  0.433  0.567
  0.333  0.420  0.247  0.000  0.000
    occupations:
  0.987  0.000  0.000  0.000  0.000
  0.000  0.969  0.000  0.000  0.000
  0.000  0.000  0.969  0.000  0.000
  0.000  0.000  0.000  0.987  0.000
  0.000  0.000  0.000  0.000  0.969
   spin  2
    eigenvalues: 
  0.447  0.447  0.579  0.579  0.579
    eigenvectors:
  0.586  0.414  0.000  0.000  0.000
  0.000  0.000  0.026  0.641  0.333
  0.000  0.000  0.599  0.068  0.333
  0.414  0.586  0.000  0.000  0.000
  0.000  0.000  0.376  0.291  0.333
    occupations:
  0.447  0.000  0.000  0.000  0.000
  0.000  0.579  0.000  0.000  0.000
  0.000  0.000  0.579  0.000  0.000
  0.000  0.000  0.000  0.447  0.000
  0.000  0.000  0.000  0.000  0.579
atomic mag. moment =     2.250002
atom    4   Tr[ns(na)] (up, down, total) =   4.88168  2.63168  7.51337
   spin  1
    eigenvalues: 
  0.969  0.969  0.969  0.987  0.987
    eigenvectors:
  0.000  0.000  0.000  0.586  0.414
  0.333  0.056  0.610  0.000  0.000
  0.333  0.311  0.355  0.000  0.000
  0.000  0.000  0.000  0.414  0.586
  0.333  0.632  0.034  0.000  0.000
    occupations:
  0.987  0.000  0.000  0.000  0.000
  0.000  0.969  0.000  0.000  0.000
  0.000  0.000  0.969  0.000  0.000
  0.000  0.000  0.000  0.987  0.000
  0.000  0.000  0.000  0.000  0.969
   spin  2
    eigenvalues: 
  0.447  0.447  0.579  0.579  0.579
    eigenvectors:
  0.453  0.547  0.000  0.000  0.000
  0.000  0.000  0.045  0.622  0.333
  0.000  0.000  0.333  0.334  0.333
  0.547  0.453  0.000  0.000  0.000
  0.000  0.000  0.622  0.045  0.333
    occupations:
  0.447  0.000  0.000  0.000  0.000
  0.000  0.579  0.000  0.000  0.000
  0.000  0.000  0.579  0.000  0.000
  0.000  0.000  0.000  0.447  0.000
  0.000  0.000  0.000  0.000  0.579
atomic mag. moment =     2.250002
atom    5   Tr[ns(na)] (up, down, total) =   4.88169  2.63169  7.51338
   spin  1
    eigenvalues: 
  0.969  0.969  0.969  0.987  0.987
    eigenvectors:
  0.000  0.000  0.000  0.250  0.750
  0.062  0.938  0.000  0.000  0.000
  0.000  0.000  1.000  0.000  0.000
  0.000  0.000  0.000  0.750  0.250
  0.938  0.062  0.000  0.000  0.000
    occupations:
  0.987  0.000  0.000  0.000  0.000
  0.000  0.969  0.000  0.000  0.000
  0.000  0.000  0.969  0.000  0.000
  0.000  0.000  0.000  0.987  0.000
  0.000  0.000  0.000  0.000  0.969
   spin  2
    eigenvalues: 
  0.447  0.447  0.579  0.579  0.579
    eigenvectors:
  0.250  0.750  0.000  0.000  0.000
  0.000  0.000  0.000  0.065  0.935
  0.000  0.000  1.000  0.000  0.000
  0.750  0.250  0.000  0.000  0.000
  0.000  0.000  0.000  0.935  0.065
    occupations:
  0.447  0.000  0.000  0.000  0.000
  0.000  0.579  0.000  0.000  0.000
  0.000  0.000  0.579  0.000  0.000
  0.000  0.000  0.000  0.447  0.000
  0.000  0.000  0.000  0.000  0.579
atomic mag. moment =     2.250000
atom    6   Tr[ns(na)] (up, down, total) =   4.88169  2.63169  7.51338
   spin  1
    eigenvalues: 
  0.969  0.969  0.969  0.987  0.987
    eigenvectors:
  0.000  0.000  0.000  0.250  0.750
  0.000  0.000  1.000  0.000  0.000
  0.358  0.642  0.000  0.000  0.000
  0.000  0.000  0.000  0.750  0.250
  0.642  0.358  0.000  0.000  0.000
    occupations:
  0.987  0.000  0.000  0.000  0.000
  0.000  0.969  0.000  0.000  0.000
  0.000  0.000  0.969  0.000  0.000
  0.000  0.000  0.000  0.987  0.000
  0.000  0.000  0.000  0.000  0.969
   spin  2
    eigenvalues: 
  0.447  0.447  0.579  0.579  0.579
    eigenvectors:
  0.250  0.750  0.000  0.000  0.000
  0.000  0.000  1.000  0.000  0.000
  0.000  0.000  0.000  0.332  0.668
  0.750  0.250  0.000  0.000  0.000
  0.000  0.000  0.000  0.668  0.332
    occupations:
  0.447  0.000  0.000  0.000  0.000
  0.000  0.579  0.000  0.000  0.000
  0.000  0.000  0.579  0.000  0.000
  0.000  0.000  0.000  0.447  0.000
  0.000  0.000  0.000  0.000  0.579
atomic mag. moment =     2.250000
atom    7   Tr[ns(na)] (up, down, total) =   4.88169  2.63169  7.51338
   spin  1
    eigenvalues: 
  0.969  0.969  0.969  0.987  0.987
    eigenvectors:
  0.000  0.000  0.000  1.000  0.000
  0.220  0.780  0.000  0.000  0.000
  0.780  0.220  0.000  0.000  0.000
  0.000  0.000  0.000  0.000  1.000
  0.000  0.000  1.000  0.000  0.000
    occupations:
  0.987  0.000  0.000  0.000  0.000
  0.000  0.969  0.000  0.000  0.000
  0.000  0.000  0.969  0.000  0.000
  0.000  0.000  0.000  0.987  0.000
  0.000  0.000  0.000  0.000  0.969
   spin  2
    eigenvalues: 
  0.447  0.447  0.579  0.579  0.579
    eigenvectors:
  1.000  0.000  0.000  0.000  0.000
  0.000  0.000  0.000  0.277  0.723
  0.000  0.000  0.000  0.723  0.277
  0.000  1.000  0.000  0.000  0.000
  0.000  0.000  1.000  0.000  0.000
    occupations:
  0.447  0.000  0.000  0.000  0.000
  0.000  0.579  0.000  0.000  0.000
  0.000  0.000  0.579  0.000  0.000
  0.000  0.000  0.000  0.447  0.000
  0.000  0.000  0.000  0.000  0.579
atomic mag. moment =     2.250000
atom    8   Tr[ns(na)] (up, down, total) =   4.88168  2.63168  7.51337
   spin  1
    eigenvalues: 
  0.969  0.969  0.969  0.987  0.987
    eigenvectors:
  0.000  0.000  0.000  0.500  0.500
  0.333  0.666  0.001  0.000  0.000
  0.333  0.147  0.520  0.000  0.000
  0.000  0.000  0.000  0.500  0.500
  0.333  0.188  0.479  0.000  0.000
    occupations:
  0.987  0.000  0.000  0.000  0.000
  0.000  0.969  0.000  0.000  0.000
  0.000  0.000  0.969  0.000  0.000
  0.000  0.000  0.000  0.987  0.000
  0.000  0.000  0.000  0.000  0.969
   spin  2
    eigenvalues: 
  0.447  0.447  0.579  0.579  0.579
    eigenvectors:
  0.540  0.460  0.000  0.000  0.000
  0.000  0.000  0.665  0.002  0.333
  0.000  0.000  0.136  0.530  0.333
  0.460  0.540  0.000  0.000  0.000
  0.000  0.000  0.199  0.468  0.333
    occupations:
  0.447  0.000  0.000  0.000  0.000
  0.000  0.579  0.000  0.000  0.000
  0.000  0.000  0.579  0.000  0.000
  0.000  0.000  0.000  0.447  0.000
  0.000  0.000  0.000  0.000  0.579
atomic mag. moment =     2.250002
N of occupied +U levels =   60.106981
 --- exit write_ns ---
 Atomic wfc used for LDA+U Projector are NOT orthogonalized
     Starting wfc from file

     total cpu time spent up to now is        2.1 secs

     per-process dynamical memory:    25.7 Mb

     Self-consistent Calculation

     iteration #  1     ecut=    30.00 Ry     beta=0.30
     Davidson diagonalization with overlap
     c_bands:  2 eigenvalues not converged
     c_bands:  4 eigenvalues not converged
     c_bands:  2 eigenvalues not converged
     c_bands:  3 eigenvalues not converged
     c_bands:  1 eigenvalues not converged
     c_bands:  1 eigenvalues not converged
     c_bands:  4 eigenvalues not converged
     c_bands:  2 eigenvalues not converged
     ethr =  1.72E-12,  avg # of iterations = 13.4
 --- enter write_ns ---
 LDA+U parameters:
U( 1)     =  0.00000000
alpha( 1) = -0.05000000
U( 2)     =  0.00000000
alpha( 2) =  0.00000000
atom    1   Tr[ns(na)] (up, down, total) =   4.88653  2.67245  7.55899
   spin  1
    eigenvalues: 
  0.970  0.970  0.970  0.988  0.988
    eigenvectors:
  0.000  0.000  0.000  0.438  0.562
  0.068  0.381  0.551  0.000  0.000
  0.335  0.266  0.400  0.000  0.000
  0.000  0.000  0.000  0.562  0.438
  0.597  0.354  0.049  0.000  0.000
    occupations:
  0.988  0.000  0.000  0.000  0.000
  0.000  0.970  0.000  0.000  0.000
  0.000  0.000  0.970  0.000  0.000
  0.000  0.000  0.000  0.988  0.000
  0.000  0.000  0.000  0.000  0.970
   spin  2
    eigenvalues: 
  0.454  0.454  0.588  0.588  0.588
    eigenvectors:
  0.557  0.443  0.000  0.000  0.000
  0.000  0.000  0.071  0.343  0.586
  0.000  0.000  0.342  0.284  0.374
  0.443  0.557  0.000  0.000  0.000
  0.000  0.000  0.587  0.373  0.040
    occupations:
  0.454  0.000  0.000  0.000  0.000
  0.000  0.588  0.000  0.000  0.000
  0.000  0.000  0.588  0.000  0.000
  0.000  0.000  0.000  0.454  0.000
  0.000  0.000  0.000  0.000  0.588
atomic mag. moment =     2.214080
atom    2   Tr[ns(na)] (up, down, total) =   4.88136  2.62532  7.50668
   spin  1
    eigenvalues: 
  0.969  0.969  0.969  0.987  0.987
    eigenvectors:
  0.000  0.000  0.000  0.541  0.459
  0.461  0.206  0.333  0.000  0.000
  0.003  0.664  0.333  0.000  0.000
  0.000  0.000  0.000  0.459  0.541
  0.536  0.130  0.333  0.000  0.000
    occupations:
  0.987  0.000  0.000  0.000  0.000
  0.000  0.969  0.000  0.000  0.000
  0.000  0.000  0.969  0.000  0.000
  0.000  0.000  0.000  0.987  0.000
  0.000  0.000  0.000  0.000  0.969
   spin  2
    eigenvalues: 
  0.446  0.446  0.578  0.578  0.578
    eigenvectors:
  0.615  0.385  0.000  0.000  0.000
  0.000  0.000  0.333  0.432  0.234
  0.000  0.000  0.333  0.008  0.658
  0.385  0.615  0.000  0.000  0.000
  0.000  0.000  0.333  0.559  0.107
    occupations:
  0.446  0.000  0.000  0.000  0.001
  0.000  0.578  0.000  0.000  0.000
  0.000  0.000  0.578  0.000  0.000
  0.000  0.000  0.000  0.446  0.000
  0.001  0.000  0.000  0.000  0.578
atomic mag. moment =     2.256033
atom    3   Tr[ns(na)] (up, down, total) =   4.88136  2.62532  7.50668
   spin  1
    eigenvalues: 
  0.969  0.969  0.969  0.987  0.987
    eigenvectors:
  0.000  0.000  0.000  0.614  0.386
  0.015  0.651  0.333  0.000  0.000
  0.579  0.088  0.333  0.000  0.000
  0.000  0.000  0.000  0.386  0.614
  0.406  0.261  0.333  0.000  0.000
    occupations:
  0.987  0.000  0.000  0.000  0.000
  0.000  0.969  0.000  0.000  0.000
  0.000  0.000  0.969  0.000  0.000
  0.000  0.000  0.000  0.987  0.000
  0.000  0.000  0.000  0.000  0.969
   spin  2
    eigenvalues: 
  0.446  0.446  0.578  0.578  0.578
    eigenvectors:
  0.715  0.285  0.000  0.000  0.000
  0.000  0.000  0.333  0.015  0.651
  0.000  0.000  0.333  0.579  0.088
  0.285  0.715  0.000  0.000  0.000
  0.000  0.000  0.333  0.406  0.261
    occupations:
  0.446  0.000  0.000  0.000 -0.001
  0.000  0.578  0.000  0.000  0.000
  0.000  0.000  0.578  0.000  0.000
  0.000  0.000  0.000  0.446  0.000
 -0.001  0.000  0.000  0.000  0.578
atomic mag. moment =     2.256033
atom    4   Tr[ns(na)] (up, down, total) =   4.88136  2.62532  7.50668
   spin  1
    eigenvalues: 
  0.969  0.969  0.969  0.987  0.987
    eigenvectors:
  0.000  0.000  0.000  0.557  0.443
  0.054  0.613  0.333  0.000  0.000
  0.316  0.351  0.333  0.000  0.000
  0.000  0.000  0.000  0.443  0.557
  0.630  0.036  0.333  0.000  0.000
    occupations:
  0.987  0.000  0.000  0.000  0.000
  0.000  0.969  0.000  0.000  0.000
  0.000  0.000  0.969  0.000  0.000
  0.000  0.000  0.000  0.987  0.000
  0.000  0.000  0.000  0.000  0.969
   spin  2
    eigenvalues: 
  0.446  0.446  0.578  0.578  0.578
    eigenvectors:
  0.680  0.320  0.000  0.000  0.000
  0.000  0.000  0.333  0.056  0.611
  0.000  0.000  0.333  0.313  0.354
  0.320  0.680  0.000  0.000  0.000
  0.000  0.000  0.333  0.632  0.035
    occupations:
  0.446  0.000  0.000  0.000  0.001
  0.000  0.578  0.000  0.000  0.000
  0.000  0.000  0.578  0.000  0.000
  0.000  0.000  0.000  0.446  0.000
  0.001  0.000  0.000  0.000  0.578
atomic mag. moment =     2.256033
atom    5   Tr[ns(na)] (up, down, total) =   4.88071  2.62829  7.50900
   spin  1
    eigenvalues: 
  0.968  0.969  0.969  0.987  0.987
    eigenvectors:
  0.000  0.000  0.000  0.750  0.250
  0.000  0.065  0.935  0.000  0.000
  1.000  0.000  0.000  0.000  0.000
  0.000  0.000  0.000  0.250  0.750
  0.000  0.935  0.065  0.000  0.000
    occupations:
  0.987  0.000  0.000  0.000  0.000
  0.000  0.969  0.000  0.000  0.000
  0.000  0.000  0.968  0.000  0.000
  0.000  0.000  0.000  0.987  0.000
  0.000  0.000  0.000  0.000  0.969
   spin  2
    eigenvalues: 
  0.447  0.447  0.578  0.578  0.578
    eigenvectors:
  0.250  0.750  0.000  0.000  0.000
  0.000  0.000  0.000  0.085  0.915
  0.000  0.000  1.000  0.000  0.000
  0.750  0.250  0.000  0.000  0.000
  0.000  0.000  0.000  0.915  0.085
    occupations:
  0.447  0.000  0.000  0.000  0.000
  0.000  0.578  0.000  0.000  0.000
  0.000  0.000  0.578  0.000  0.000
  0.000  0.000  0.000  0.447  0.000
  0.000  0.000  0.000  0.000  0.578
atomic mag. moment =     2.252423
atom    6   Tr[ns(na)] (up, down, total) =   4.88071  2.62829  7.50900
   spin  1
    eigenvalues: 
  0.968  0.969  0.969  0.987  0.987
    eigenvectors:
  0.000  0.000  0.000  0.750  0.250
  1.000  0.000  0.000  0.000  0.000
  0.000  0.345  0.655  0.000  0.000
  0.000  0.000  0.000  0.250  0.750
  0.000  0.655  0.345  0.000  0.000
    occupations:
  0.987  0.000  0.000  0.000  0.000
  0.000  0.968  0.000  0.000  0.000
  0.000  0.000  0.969  0.000  0.000
  0.000  0.000  0.000  0.987  0.000
  0.000  0.000  0.000  0.000  0.969
   spin  2
    eigenvalues: 
  0.447  0.447  0.578  0.578  0.578
    eigenvectors:
  0.250  0.750  0.000  0.000  0.000
  0.000  0.000  1.000  0.000  0.000
  0.000  0.000  0.000  0.340  0.660
  0.750  0.250  0.000  0.000  0.000
  0.000  0.000  0.000  0.660  0.340
    occupations:
  0.447  0.000  0.000  0.000  0.000
  0.000  0.578  0.000  0.000  0.000
  0.000  0.000  0.578  0.000  0.000
  0.000  0.000  0.000  0.447  0.000
  0.000  0.000  0.000  0.000  0.578
atomic mag. moment =     2.252423
atom    7   Tr[ns(na)] (up, down, total) =   4.88071  2.62829  7.50900
   spin  1
    eigenvalues: 
  0.968  0.969  0.969  0.987  0.987
    eigenvectors:
  0.000  0.000  0.000  0.000  1.000
  0.000  0.244  0.756  0.000  0.000
  0.000  0.756  0.244  0.000  0.000
  0.000  0.000  0.000  1.000  0.000
  1.000  0.000  0.000  0.000  0.000
    occupations:
  0.987  0.000  0.000  0.000  0.000
  0.000  0.969  0.000  0.000  0.000
  0.000  0.000  0.969  0.000  0.000
  0.000  0.000  0.000  0.987  0.000
  0.000  0.000  0.000  0.000  0.968
   spin  2
    eigenvalues: 
  0.447  0.447  0.578  0.578  0.578
    eigenvectors:
  1.000  0.000  0.000  0.000  0.000
  0.000  0.000  0.000  0.285  0.715
  0.000  0.000  0.000  0.715  0.285
  0.000  1.000  0.000  0.000  0.000
  0.000  0.000  1.000  0.000  0.000
    occupations:
  0.447  0.000  0.000  0.000  0.000
  0.000  0.578  0.000  0.000  0.000
  0.000  0.000  0.578  0.000  0.000
  0.000  0.000  0.000  0.447  0.000
  0.000  0.000  0.000  0.000  0.578
atomic mag. moment =     2.252423
atom    8   Tr[ns(na)] (up, down, total) =   4.88136  2.62532  7.50668
   spin  1
    eigenvalues: 
  0.969  0.969  0.969  0.987  0.987
    eigenvectors:
  0.000  0.000  0.000  0.557  0.443
  0.661  0.005  0.333  0.000  0.000
  0.118  0.549  0.333  0.000  0.000
  0.000  0.000  0.000  0.443  0.557
  0.221  0.446  0.333  0.000  0.000
    occupations:
  0.987  0.000  0.000  0.000  0.000
  0.000  0.969  0.000  0.000  0.000
  0.000  0.000  0.969  0.000  0.000
  0.000  0.000  0.000  0.987  0.000
  0.000  0.000  0.000  0.000  0.969
   spin  2
    eigenvalues: 
  0.446  0.446  0.578  0.578  0.578
    eigenvectors:
  0.602  0.398  0.000  0.000  0.000
  0.000  0.000  0.333  0.664  0.003
  0.000  0.000  0.333  0.131  0.536
  0.398  0.602  0.000  0.000  0.000
  0.000  0.000  0.333  0.205  0.461
    occupations:
  0.446  0.000  0.000  0.000 -0.001
  0.000  0.578  0.000  0.000  0.000
  0.000  0.000  0.578  0.000  0.000
  0.000  0.000  0.000  0.446  0.000
 -0.001  0.000  0.000  0.000  0.578
atomic mag. moment =     2.256033
N of occupied +U levels =   60.112711
 --- exit write_ns ---
 --- in v_hubbard ---
Hubbard energy   -0.0277
 -------
 
     Magnetic moment per site:
     atom:    1    charge:    6.4899    magn:    2.5160    constr:    0.0000
     atom:    2    charge:    6.4758    magn:    2.5259    constr:    0.0000
     atom:    3    charge:    6.4758    magn:    2.5259    constr:    0.0000
     atom:    4    charge:    6.4758    magn:    2.5259    constr:    0.0000
     atom:    5    charge:    6.4763    magn:    2.5248    constr:    0.0000
     atom:    6    charge:    6.4763    magn:    2.5248    constr:    0.0000
     atom:    7    charge:    6.4763    magn:    2.5248    constr:    0.0000
     atom:    8    charge:    6.4758    magn:    2.5259    constr:    0.0000

     total cpu time spent up to now is       14.2 secs

     total energy              =    -446.44149954 Ry
     Harris-Foulkes estimate   =    -446.44199733 Ry
     estimated scf accuracy    <       0.00106926 Ry

     total magnetization       =    19.53 Bohr mag/cell
     absolute magnetization    =    20.98 Bohr mag/cell

     iteration #  2     ecut=    30.00 Ry     beta=0.30
     Davidson diagonalization with overlap
     ethr =  1.67E-06,  avg # of iterations =  2.9
 --- enter write_ns ---
 LDA+U parameters:
U( 1)     =  0.00000000
alpha( 1) = -0.05000000
U( 2)     =  0.00000000
alpha( 2) =  0.00000000
atom    1   Tr[ns(na)] (up, down, total) =   4.85680  2.54089  7.39769
   spin  1
    eigenvalues: 
  0.963  0.963  0.963  0.984  0.984
    eigenvectors:
  0.000  0.000  0.000  0.690  0.310
  0.064  0.336  0.600  0.000  0.000
  0.327  0.310  0.364  0.000  0.000
  0.000  0.000  0.000  0.310  0.690
  0.609  0.354  0.036  0.000  0.000
    occupations:
  0.984  0.000  0.000  0.000  0.000
  0.000  0.963  0.000  0.000  0.000
  0.000  0.000  0.963  0.000  0.000
  0.000  0.000  0.000  0.984  0.000
  0.000  0.000  0.000  0.000  0.963
   spin  2
    eigenvalues: 
  0.434  0.434  0.558  0.558  0.558
    eigenvectors:
  0.579  0.421  0.000  0.000  0.000
  0.000  0.000  0.075  0.406  0.518
  0.000  0.000  0.367  0.218  0.415
  0.421  0.579  0.000  0.000  0.000
  0.000  0.000  0.557  0.376  0.067
    occupations:
  0.434  0.000  0.000  0.000  0.000
  0.000  0.558  0.000  0.000  0.000
  0.000  0.000  0.558  0.000  0.000
  0.000  0.000  0.000  0.434  0.000
  0.000  0.000  0.000  0.000  0.558
atomic mag. moment =     2.315915
atom    2   Tr[ns(na)] (up, down, total) =   4.88421  2.64637  7.53058
   spin  1
    eigenvalues: 
  0.968  0.971  0.971  0.988  0.988
    eigenvectors:
  0.000  0.000  0.000  0.616  0.384
  0.333  0.434  0.232  0.000  0.000
  0.333  0.008  0.659  0.000  0.000
  0.000  0.000  0.000  0.384  0.616
  0.333  0.558  0.109  0.000  0.000
    occupations:
  0.988  0.000  0.000  0.000  0.000
  0.000  0.970 -0.001  0.000  0.001
  0.000 -0.001  0.970  0.000  0.001
  0.000  0.000  0.000  0.988  0.000
  0.000  0.001  0.001  0.000  0.970
   spin  2
    eigenvalues: 
  0.449  0.449  0.582  0.582  0.584
    eigenvectors:
  0.464  0.536  0.000  0.000  0.000
  0.000  0.000  0.437  0.229  0.333
  0.000  0.000  0.007  0.660  0.333
  0.536  0.464  0.000  0.000  0.000
  0.000  0.000  0.556  0.111  0.333
    occupations:
  0.449 -0.001 -0.001  0.000 -0.001
 -0.001  0.583  0.001 -0.001 -0.001
 -0.001  0.001  0.583  0.001 -0.001
  0.000 -0.001  0.001  0.449  0.000
 -0.001 -0.001 -0.001  0.000  0.583
atomic mag. moment =     2.237847
atom    3   Tr[ns(na)] (up, down, total) =   4.88421  2.64637  7.53058
   spin  1
    eigenvalues: 
  0.968  0.971  0.971  0.988  0.988
    eigenvectors:
  0.000  0.000  0.000  0.483  0.517
  0.333  0.014  0.653  0.000  0.000
  0.333  0.575  0.092  0.000  0.000
  0.000  0.000  0.000  0.517  0.483
  0.333  0.411  0.256  0.000  0.000
    occupations:
  0.988  0.000  0.000  0.000  0.000
  0.000  0.970  0.001  0.000  0.001
  0.000  0.001  0.970  0.000 -0.001
  0.000  0.000  0.000  0.988  0.000
  0.000  0.001 -0.001  0.000  0.970
   spin  2
    eigenvalues: 
  0.449  0.449  0.582  0.582  0.584
    eigenvectors:
  0.630  0.369  0.000  0.000  0.000
  0.000  0.000  0.015  0.652  0.333
  0.000  0.000  0.577  0.089  0.333
  0.369  0.630  0.000  0.000  0.000
  0.000  0.000  0.408  0.259  0.333
    occupations:
  0.449  0.001 -0.001  0.000  0.001
  0.001  0.583 -0.001  0.001 -0.001
 -0.001 -0.001  0.583  0.001  0.001
  0.000  0.001  0.001  0.449  0.000
  0.001 -0.001  0.001  0.000  0.583
atomic mag. moment =     2.237847
atom    4   Tr[ns(na)] (up, down, total) =   4.88421  2.64637  7.53058
   spin  1
    eigenvalues: 
  0.968  0.971  0.971  0.988  0.988
    eigenvectors:
  0.000  0.000  0.000  0.673  0.327
  0.333  0.054  0.613  0.000  0.000
  0.333  0.316  0.351  0.000  0.000
  0.000  0.000  0.000  0.327  0.673
  0.333  0.630  0.036  0.000  0.000
    occupations:
  0.988  0.000  0.000  0.000  0.000
  0.000  0.970 -0.001  0.000 -0.001
  0.000 -0.001  0.970  0.000 -0.001
  0.000  0.000  0.000  0.988  0.000
  0.000 -0.001 -0.001  0.000  0.970
   spin  2
    eigenvalues: 
  0.449  0.449  0.582  0.582  0.584
    eigenvectors:
  0.579  0.421  0.000  0.000  0.000
  0.000  0.000  0.056  0.610  0.333
  0.000  0.000  0.311  0.355  0.333
  0.421  0.579  0.000  0.000  0.000
  0.000  0.000  0.632  0.034  0.333
    occupations:
  0.449  0.001  0.001  0.000 -0.001
  0.001  0.583  0.001  0.001  0.001
  0.001  0.001  0.583 -0.001  0.001
  0.000  0.001 -0.001  0.449  0.000
 -0.001  0.001  0.001  0.000  0.583
atomic mag. moment =     2.237847
atom    5   Tr[ns(na)] (up, down, total) =   4.88737  2.64323  7.53061
   spin  1
    eigenvalues: 
  0.970  0.970  0.972  0.988  0.988
    eigenvectors:
  0.000  0.000  0.000  0.250  0.750
  0.081  0.919  0.000  0.000  0.000
  0.000  0.000  1.000  0.000  0.000
  0.000  0.000  0.000  0.750  0.250
  0.919  0.081  0.000  0.000  0.000
    occupations:
  0.988  0.000  0.000  0.000  0.000
  0.000  0.970  0.000  0.000  0.000
  0.000  0.000  0.972  0.000  0.000
  0.000  0.000  0.000  0.988  0.000
  0.000  0.000  0.000  0.000  0.970
   spin  2
    eigenvalues: 
  0.447  0.449  0.582  0.582  0.583
    eigenvectors:
  0.750  0.250  0.000  0.000  0.000
  0.000  0.000  0.081  0.919  0.000
  0.000  0.000  0.000  0.000  1.000
  0.250  0.750  0.000  0.000  0.000
  0.000  0.000  0.919  0.081  0.000
    occupations:
  0.448  0.000  0.000 -0.001  0.000
  0.000  0.582  0.000  0.000  0.000
  0.000  0.000  0.583  0.000  0.000
 -0.001  0.000  0.000  0.448  0.000
  0.000  0.000  0.000  0.000  0.582
atomic mag. moment =     2.244141
atom    6   Tr[ns(na)] (up, down, total) =   4.88737  2.64323  7.53061
   spin  1
    eigenvalues: 
  0.970  0.970  0.972  0.988  0.988
    eigenvectors:
  0.000  0.000  0.000  0.250  0.750
  0.000  0.000  1.000  0.000  0.000
  0.349  0.651  0.000  0.000  0.000
  0.000  0.000  0.000  0.750  0.250
  0.651  0.349  0.000  0.000  0.000
    occupations:
  0.988  0.000  0.000  0.000  0.000
  0.000  0.972  0.000  0.000  0.000
  0.000  0.000  0.970  0.000  0.000
  0.000  0.000  0.000  0.988  0.000
  0.000  0.000  0.000  0.000  0.970
   spin  2
    eigenvalues: 
  0.447  0.449  0.582  0.582  0.583
    eigenvectors:
  0.750  0.250  0.000  0.000  0.000
  0.000  0.000  0.000  0.000  1.000
  0.000  0.000  0.339  0.661  0.000
  0.250  0.750  0.000  0.000  0.000
  0.000  0.000  0.661  0.339  0.000
    occupations:
  0.448  0.000  0.000  0.001  0.000
  0.000  0.583  0.000  0.000  0.000
  0.000  0.000  0.582  0.000  0.000
  0.001  0.000  0.000  0.448  0.000
  0.000  0.000  0.000  0.000  0.582
atomic mag. moment =     2.244141
atom    7   Tr[ns(na)] (up, down, total) =   4.88737  2.64323  7.53061
   spin  1
    eigenvalues: 
  0.970  0.970  0.972  0.988  0.988
    eigenvectors:
  0.000  0.000  0.000  1.000  0.000
  0.258  0.742  0.000  0.000  0.000
  0.742  0.258  0.000  0.000  0.000
  0.000  0.000  0.000  0.000  1.000
  0.000  0.000  1.000  0.000  0.000
    occupations:
  0.988  0.000  0.000  0.000  0.000
  0.000  0.970  0.000  0.000  0.000
  0.000  0.000  0.970  0.000  0.000
  0.000  0.000  0.000  0.988  0.000
  0.000  0.000  0.000  0.000  0.972
   spin  2
    eigenvalues: 
  0.447  0.449  0.582  0.582  0.583
    eigenvectors:
  0.000  1.000  0.000  0.000  0.000
  0.000  0.000  0.258  0.742  0.000
  0.000  0.000  0.742  0.258  0.000
  1.000  0.000  0.000  0.000  0.000
  0.000  0.000  0.000  0.000  1.000
    occupations:
  0.449  0.000  0.000  0.000  0.000
  0.000  0.582  0.000  0.000  0.000
  0.000  0.000  0.582  0.000  0.000
  0.000  0.000  0.000  0.447  0.000
  0.000  0.000  0.000  0.000  0.583
atomic mag. moment =     2.244141
atom    8   Tr[ns(na)] (up, down, total) =   4.88421  2.64637  7.53058
   spin  1
    eigenvalues: 
  0.968  0.971  0.971  0.988  0.988
    eigenvectors:
  0.000  0.000  0.000  0.597  0.403
  0.333  0.661  0.006  0.000  0.000
  0.333  0.115  0.551  0.000  0.000
  0.000  0.000  0.000  0.403  0.597
  0.333  0.224  0.443  0.000  0.000
    occupations:
  0.988  0.000  0.000  0.000  0.000
  0.000  0.970  0.001  0.000 -0.001
  0.000  0.001  0.970  0.000  0.001
  0.000  0.000  0.000  0.988  0.000
  0.000 -0.001  0.001  0.000  0.970
   spin  2
    eigenvalues: 
  0.449  0.449  0.582  0.582  0.584
    eigenvectors:
  0.560  0.439  0.000  0.000  0.000
  0.000  0.000  0.661  0.006  0.333
  0.000  0.000  0.115  0.551  0.333
  0.439  0.560  0.000  0.000  0.000
  0.000  0.000  0.224  0.443  0.333
    occupations:
  0.449 -0.001  0.001  0.000  0.001
 -0.001  0.583 -0.001 -0.001  0.001
  0.001 -0.001  0.583 -0.001 -0.001
  0.000 -0.001 -0.001  0.449  0.000
  0.001  0.001 -0.001  0.000  0.583
atomic mag. moment =     2.237847
N of occupied +U levels =   60.111818
 --- exit write_ns ---
 --- in v_hubbard ---
Hubbard energy   -0.0276
 -------
 
     Magnetic moment per site:
     atom:    1    charge:    6.4806    magn:    2.5189    constr:    0.0000
     atom:    2    charge:    6.4771    magn:    2.5253    constr:    0.0000
     atom:    3    charge:    6.4771    magn:    2.5253    constr:    0.0000
     atom:    4    charge:    6.4771    magn:    2.5253    constr:    0.0000
     atom:    5    charge:    6.4776    magn:    2.5247    constr:    0.0000
     atom:    6    charge:    6.4776    magn:    2.5247    constr:    0.0000
     atom:    7    charge:    6.4776    magn:    2.5247    constr:    0.0000
     atom:    8    charge:    6.4771    magn:    2.5253    constr:    0.0000

     total cpu time spent up to now is       18.8 secs

     total energy              =    -446.44112694 Ry
     Harris-Foulkes estimate   =    -446.44276880 Ry
     estimated scf accuracy    <       0.01371997 Ry

     total magnetization       =    19.54 Bohr mag/cell
     absolute magnetization    =    20.98 Bohr mag/cell

     iteration #  3     ecut=    30.00 Ry     beta=0.30
     Davidson diagonalization with overlap
     ethr =  1.67E-06,  avg # of iterations =  1.8
 --- enter write_ns ---
 LDA+U parameters:
U( 1)     =  0.00000000
alpha( 1) = -0.05000000
U( 2)     =  0.00000000
alpha( 2) =  0.00000000
atom    1   Tr[ns(na)] (up, down, total) =   4.88027  2.64586  7.52613
   spin  1
    eigenvalues: 
  0.969  0.969  0.969  0.987  0.987
    eigenvectors:
  0.000  0.000  0.000  0.717  0.283
  0.069  0.396  0.535  0.000  0.000
  0.349  0.245  0.406  0.000  0.000
  0.000  0.000  0.000  0.283  0.717
  0.582  0.359  0.059  0.000  0.000
    occupations:
  0.987  0.000  0.000  0.000  0.000
  0.000  0.969  0.000  0.000  0.000
  0.000  0.000  0.969  0.000  0.000
  0.000  0.000  0.000  0.987  0.000
  0.000  0.000  0.000  0.000  0.969
   spin  2
    eigenvalues: 
  0.449  0.449  0.582  0.582  0.582
    eigenvectors:
  0.699  0.301  0.000  0.000  0.000
  0.000  0.000  0.070  0.358  0.572
  0.000  0.000  0.342  0.275  0.383
  0.301  0.699  0.000  0.000  0.000
  0.000  0.000  0.588  0.367  0.045
    occupations:
  0.449  0.000  0.000  0.000  0.000
  0.000  0.582  0.000  0.000  0.000
  0.000  0.000  0.582  0.000  0.000
  0.000  0.000  0.000  0.449  0.000
  0.000  0.000  0.000  0.000  0.582
atomic mag. moment =     2.234409
atom    2   Tr[ns(na)] (up, down, total) =   4.88193  2.63143  7.51336
   spin  1
    eigenvalues: 
  0.969  0.969  0.969  0.987  0.987
    eigenvectors:
  0.000  0.000  0.000  0.611  0.389
  0.333  0.474  0.192  0.000  0.000
  0.333  0.001  0.665  0.000  0.000
  0.000  0.000  0.000  0.389  0.611
  0.333  0.525  0.142  0.000  0.000
    occupations:
  0.987  0.000  0.000  0.000  0.000
  0.000  0.969  0.000  0.000  0.000
  0.000  0.000  0.969  0.000  0.000
  0.000  0.000  0.000  0.987  0.000
  0.000  0.000  0.000  0.000  0.969
   spin  2
    eigenvalues: 
  0.447  0.447  0.579  0.580  0.580
    eigenvectors:
  0.746  0.254  0.000  0.000  0.000
  0.000  0.000  0.333  0.404  0.263
  0.000  0.000  0.333  0.016  0.651
  0.254  0.746  0.000  0.000  0.000
  0.000  0.000  0.333  0.580  0.086
    occupations:
  0.447  0.000  0.000  0.000  0.000
  0.000  0.579  0.000  0.000  0.000
  0.000  0.000  0.579  0.000  0.000
  0.000  0.000  0.000  0.447  0.000
  0.000  0.000  0.000  0.000  0.579
atomic mag. moment =     2.250501
atom    3   Tr[ns(na)] (up, down, total) =   4.88193  2.63143  7.51336
   spin  1
    eigenvalues: 
  0.969  0.969  0.969  0.987  0.987
    eigenvectors:
  0.000  0.000  0.000  0.554  0.446
  0.333  0.018  0.649  0.000  0.000
  0.333  0.584  0.083  0.000  0.000
  0.000  0.000  0.000  0.446  0.554
  0.333  0.399  0.268  0.000  0.000
    occupations:
  0.987  0.000  0.000  0.000  0.000
  0.000  0.969  0.000  0.000  0.000
  0.000  0.000  0.969  0.000  0.000
  0.000  0.000  0.000  0.987  0.000
  0.000  0.000  0.000  0.000  0.969
   spin  2
    eigenvalues: 
  0.447  0.447  0.579  0.580  0.580
    eigenvectors:
  0.499  0.501  0.000  0.000  0.000
  0.000  0.000  0.333  0.019  0.648
  0.000  0.000  0.333  0.586  0.081
  0.501  0.499  0.000  0.000  0.000
  0.000  0.000  0.333  0.396  0.271
    occupations:
  0.447  0.000  0.000  0.000  0.000
  0.000  0.579  0.000  0.000  0.000
  0.000  0.000  0.579  0.000  0.000
  0.000  0.000  0.000  0.447  0.000
  0.000  0.000  0.000  0.000  0.579
atomic mag. moment =     2.250501
atom    4   Tr[ns(na)] (up, down, total) =   4.88193  2.63143  7.51336
   spin  1
    eigenvalues: 
  0.969  0.969  0.969  0.987  0.987
    eigenvectors:
  0.000  0.000  0.000  0.631  0.369
  0.333  0.055  0.612  0.000  0.000
  0.333  0.314  0.353  0.000  0.000
  0.000  0.000  0.000  0.369  0.631
  0.333  0.631  0.036  0.000  0.000
    occupations:
  0.987  0.000  0.000  0.000  0.000
  0.000  0.969  0.000  0.000  0.000
  0.000  0.000  0.969  0.000  0.000
  0.000  0.000  0.000  0.987  0.000
  0.000  0.000  0.000  0.000  0.969
   spin  2
    eigenvalues: 
  0.447  0.447  0.579  0.580  0.580
    eigenvectors:
  0.537  0.463  0.000  0.000  0.000
  0.000  0.000  0.333  0.053  0.614
  0.000  0.000  0.333  0.318  0.349
  0.463  0.537  0.000  0.000  0.000
  0.000  0.000  0.333  0.629  0.037
    occupations:
  0.447  0.000  0.000  0.000  0.000
  0.000  0.579  0.000  0.000  0.000
  0.000  0.000  0.579  0.000  0.000
  0.000  0.000  0.000  0.447  0.000
  0.000  0.000  0.000  0.000  0.579
atomic mag. moment =     2.250501
atom    5   Tr[ns(na)] (up, down, total) =   4.88161  2.62908  7.51069
   spin  1
    eigenvalues: 
  0.969  0.969  0.969  0.987  0.987
    eigenvectors:
  0.000  0.000  0.000  0.250  0.750
  0.071  0.929  0.000  0.000  0.000
  0.000  0.000  1.000  0.000  0.000
  0.000  0.000  0.000  0.750  0.250
  0.929  0.071  0.000  0.000  0.000
    occupations:
  0.987  0.000  0.000  0.000  0.000
  0.000  0.969  0.000  0.000  0.000
  0.000  0.000  0.969  0.000  0.000
  0.000  0.000  0.000  0.987  0.000
  0.000  0.000  0.000  0.000  0.969
   spin  2
    eigenvalues: 
  0.447  0.447  0.579  0.579  0.579
    eigenvectors:
  0.750  0.250  0.000  0.000  0.000
  0.000  0.000  0.000  0.065  0.935
  0.000  0.000  1.000  0.000  0.000
  0.250  0.750  0.000  0.000  0.000
  0.000  0.000  0.000  0.935  0.065
    occupations:
  0.447  0.000  0.000  0.000  0.000
  0.000  0.579  0.000  0.000  0.000
  0.000  0.000  0.579  0.000  0.000
  0.000  0.000  0.000  0.447  0.000
  0.000  0.000  0.000  0.000  0.579
atomic mag. moment =     2.252533
atom    6   Tr[ns(na)] (up, down, total) =   4.88161  2.62908  7.51069
   spin  1
    eigenvalues: 
  0.969  0.969  0.969  0.987  0.987
    eigenvectors:
  0.000  0.000  0.000  0.250  0.750
  0.000  0.000  1.000  0.000  0.000
  0.336  0.664  0.000  0.000  0.000
  0.000  0.000  0.000  0.750  0.250
  0.664  0.336  0.000  0.000  0.000
    occupations:
  0.987  0.000  0.000  0.000  0.000
  0.000  0.969  0.000  0.000  0.000
  0.000  0.000  0.969  0.000  0.000
  0.000  0.000  0.000  0.987  0.000
  0.000  0.000  0.000  0.000  0.969
   spin  2
    eigenvalues: 
  0.447  0.447  0.579  0.579  0.579
    eigenvectors:
  0.750  0.250  0.000  0.000  0.000
  0.000  0.000  1.000  0.000  0.000
  0.000  0.000  0.000  0.365  0.635
  0.250  0.750  0.000  0.000  0.000
  0.000  0.000  0.000  0.635  0.365
    occupations:
  0.447  0.000  0.000  0.000  0.000
  0.000  0.579  0.000  0.000  0.000
  0.000  0.000  0.579  0.000  0.000
  0.000  0.000  0.000  0.447  0.000
  0.000  0.000  0.000  0.000  0.579
atomic mag. moment =     2.252533
atom    7   Tr[ns(na)] (up, down, total) =   4.88161  2.62908  7.51069
   spin  1
    eigenvalues: 
  0.969  0.969  0.969  0.987  0.987
    eigenvectors:
  0.000  0.000  0.000  1.000  0.000
  0.232  0.768  0.000  0.000  0.000
  0.768  0.232  0.000  0.000  0.000
  0.000  0.000  0.000  0.000  1.000
  0.000  0.000  1.000  0.000  0.000
    occupations:
  0.987  0.000  0.000  0.000  0.000
  0.000  0.969  0.000  0.000  0.000
  0.000  0.000  0.969  0.000  0.000
  0.000  0.000  0.000  0.987  0.000
  0.000  0.000  0.000  0.000  0.969
   spin  2
    eigenvalues: 
  0.447  0.447  0.579  0.579  0.579
    eigenvectors:
  0.000  1.000  0.000  0.000  0.000
  0.000  0.000  0.000  0.198  0.802
  0.000  0.000  0.000  0.802  0.198
  1.000  0.000  0.000  0.000  0.000
  0.000  0.000  1.000  0.000  0.000
    occupations:
  0.447  0.000  0.000  0.000  0.000
  0.000  0.579  0.000  0.000  0.000
  0.000  0.000  0.579  0.000  0.000
  0.000  0.000  0.000  0.447  0.000
  0.000  0.000  0.000  0.000  0.579
atomic mag. moment =     2.252533
atom    8   Tr[ns(na)] (up, down, total) =   4.88193  2.63143  7.51336
   spin  1
    eigenvalues: 
  0.969  0.969  0.969  0.987  0.987
    eigenvectors:
  0.000  0.000  0.000  0.591  0.409
  0.333  0.665  0.001  0.000  0.000
  0.333  0.140  0.526  0.000  0.000
  0.000  0.000  0.000  0.409  0.591
  0.333  0.195  0.472  0.000  0.000
    occupations:
  0.987  0.000  0.000  0.000  0.000
  0.000  0.969  0.000  0.000  0.000
  0.000  0.000  0.969  0.000  0.000
  0.000  0.000  0.000  0.987  0.000
  0.000  0.000  0.000  0.000  0.969
   spin  2
    eigenvalues: 
  0.447  0.447  0.579  0.580  0.580
    eigenvectors:
  0.525  0.475  0.000  0.000  0.000
  0.000  0.000  0.333  0.658  0.009
  0.000  0.000  0.333  0.106  0.561
  0.475  0.525  0.000  0.000  0.000
  0.000  0.000  0.333  0.236  0.430
    occupations:
  0.447  0.000  0.000  0.000  0.000
  0.000  0.579  0.000  0.000  0.000
  0.000  0.000  0.579  0.000  0.000
  0.000  0.000  0.000  0.447  0.000
  0.000  0.000  0.000  0.000  0.579
atomic mag. moment =     2.250501
N of occupied +U levels =   60.111646
 --- exit write_ns ---
 --- in v_hubbard ---
Hubbard energy   -0.0276
 -------
 
     Magnetic moment per site:
     atom:    1    charge:    6.4806    magn:    2.5179    constr:    0.0000
     atom:    2    charge:    6.4773    magn:    2.5253    constr:    0.0000
     atom:    3    charge:    6.4773    magn:    2.5253    constr:    0.0000
     atom:    4    charge:    6.4773    magn:    2.5253    constr:    0.0000
     atom:    5    charge:    6.4774    magn:    2.5249    constr:    0.0000
     atom:    6    charge:    6.4774    magn:    2.5249    constr:    0.0000
     atom:    7    charge:    6.4774    magn:    2.5249    constr:    0.0000
     atom:    8    charge:    6.4773    magn:    2.5253    constr:    0.0000

     total cpu time spent up to now is       23.1 secs

     total energy              =    -446.44192877 Ry
     Harris-Foulkes estimate   =    -446.44193037 Ry
     estimated scf accuracy    <       0.00001679 Ry

     total magnetization       =    19.53 Bohr mag/cell
     absolute magnetization    =    20.98 Bohr mag/cell

     iteration #  4     ecut=    30.00 Ry     beta=0.30
     Davidson diagonalization with overlap
     ethr =  2.62E-08,  avg # of iterations =  2.6
 --- enter write_ns ---
 LDA+U parameters:
U( 1)     =  0.00000000
alpha( 1) = -0.05000000
U( 2)     =  0.00000000
alpha( 2) =  0.00000000
atom    1   Tr[ns(na)] (up, down, total) =   4.88007  2.64676  7.52683
   spin  1
    eigenvalues: 
  0.969  0.969  0.969  0.987  0.987
    eigenvectors:
  0.000  0.000  0.000  0.706  0.294
  0.072  0.406  0.522  0.000  0.000
  0.342  0.239  0.419  0.000  0.000
  0.000  0.000  0.000  0.294  0.706
  0.586  0.355  0.059  0.000  0.000
    occupations:
  0.987  0.000  0.000  0.000  0.000
  0.000  0.969  0.000  0.000  0.000
  0.000  0.000  0.969  0.000  0.000
  0.000  0.000  0.000  0.987  0.000
  0.000  0.000  0.000  0.000  0.969
   spin  2
    eigenvalues: 
  0.450  0.450  0.583  0.583  0.583
    eigenvectors:
  0.517  0.483  0.000  0.000  0.000
  0.000  0.000  0.072  0.437  0.490
  0.000  0.000  0.347  0.213  0.439
  0.483  0.517  0.000  0.000  0.000
  0.000  0.000  0.580  0.349  0.071
    occupations:
  0.450  0.000  0.000  0.000  0.000
  0.000  0.583  0.000  0.000  0.000
  0.000  0.000  0.583  0.000  0.000
  0.000  0.000  0.000  0.450  0.000
  0.000  0.000  0.000  0.000  0.583
atomic mag. moment =     2.233311
atom    2   Tr[ns(na)] (up, down, total) =   4.88172  2.62948  7.51120
   spin  1
    eigenvalues: 
  0.969  0.969  0.969  0.987  0.987
    eigenvectors:
  0.000  0.000  0.000  0.648  0.352
  0.333  0.446  0.221  0.000  0.000
  0.333  0.005  0.661  0.000  0.000
  0.000  0.000  0.000  0.352  0.648
  0.333  0.549  0.118  0.000  0.000
    occupations:
  0.987  0.000  0.000  0.000  0.000
  0.000  0.969  0.000  0.000  0.000
  0.000  0.000  0.969  0.000  0.000
  0.000  0.000  0.000  0.987  0.000
  0.000  0.000  0.000  0.000  0.969
   spin  2
    eigenvalues: 
  0.446  0.446  0.579  0.579  0.579
    eigenvectors:
  0.506  0.494  0.000  0.000  0.000
  0.000  0.000  0.333  0.435  0.232
  0.000  0.000  0.333  0.008  0.659
  0.494  0.506  0.000  0.000  0.000
  0.000  0.000  0.333  0.557  0.109
    occupations:
  0.446  0.000  0.000  0.000  0.000
  0.000  0.579  0.000  0.000  0.000
  0.000  0.000  0.579  0.000  0.000
  0.000  0.000  0.000  0.446  0.000
  0.000  0.000  0.000  0.000  0.579
atomic mag. moment =     2.252248
atom    3   Tr[ns(na)] (up, down, total) =   4.88172  2.62948  7.51120
   spin  1
    eigenvalues: 
  0.969  0.969  0.969  0.987  0.987
    eigenvectors:
  0.000  0.000  0.000  0.557  0.443
  0.333  0.015  0.651  0.000  0.000
  0.333  0.579  0.088  0.000  0.000
  0.000  0.000  0.000  0.443  0.557
  0.333  0.406  0.261  0.000  0.000
    occupations:
  0.987  0.000  0.000  0.000  0.000
  0.000  0.969  0.000  0.000  0.000
  0.000  0.000  0.969  0.000  0.000
  0.000  0.000  0.000  0.987  0.000
  0.000  0.000  0.000  0.000  0.969
   spin  2
    eigenvalues: 
  0.446  0.446  0.579  0.579  0.579
    eigenvectors:
  0.599  0.401  0.000  0.000  0.000
  0.000  0.000  0.333  0.016  0.651
  0.000  0.000  0.333  0.580  0.086
  0.401  0.599  0.000  0.000  0.000
  0.000  0.000  0.333  0.404  0.263
    occupations:
  0.446  0.000  0.000  0.000  0.000
  0.000  0.579  0.000  0.000  0.000
  0.000  0.000  0.579  0.000  0.000
  0.000  0.000  0.000  0.446  0.000
  0.000  0.000  0.000  0.000  0.579
atomic mag. moment =     2.252248
atom    4   Tr[ns(na)] (up, down, total) =   4.88172  2.62948  7.51120
   spin  1
    eigenvalues: 
  0.969  0.969  0.969  0.987  0.987
    eigenvectors:
  0.000  0.000  0.000  0.618  0.382
  0.333  0.059  0.608  0.000  0.000
  0.333  0.307  0.359  0.000  0.000
  0.000  0.000  0.000  0.382  0.618
  0.333  0.634  0.033  0.000  0.000
    occupations:
  0.987  0.000  0.000  0.000  0.000
  0.000  0.969  0.000  0.000  0.000
  0.000  0.000  0.969  0.000  0.000
  0.000  0.000  0.000  0.987  0.000
  0.000  0.000  0.000  0.000  0.969
   spin  2
    eigenvalues: 
  0.446  0.446  0.579  0.579  0.579
    eigenvectors:
  0.586  0.414  0.000  0.000  0.000
  0.000  0.000  0.333  0.053  0.613
  0.000  0.000  0.333  0.317  0.350
  0.414  0.586  0.000  0.000  0.000
  0.000  0.000  0.333  0.630  0.037
    occupations:
  0.446  0.000  0.000  0.000  0.000
  0.000  0.579  0.000  0.000  0.000
  0.000  0.000  0.579  0.000  0.000
  0.000  0.000  0.000  0.446  0.000
  0.000  0.000  0.000  0.000  0.579
atomic mag. moment =     2.252248
atom    5   Tr[ns(na)] (up, down, total) =   4.88194  2.63144  7.51338
   spin  1
    eigenvalues: 
  0.969  0.969  0.969  0.987  0.988
    eigenvectors:
  0.000  0.000  0.000  0.250  0.750
  0.068  0.932  0.000  0.000  0.000
  0.000  0.000  1.000  0.000  0.000
  0.000  0.000  0.000  0.750  0.250
  0.932  0.068  0.000  0.000  0.000
    occupations:
  0.987  0.000  0.000  0.000  0.000
  0.000  0.969  0.000  0.000  0.000
  0.000  0.000  0.969  0.000  0.000
  0.000  0.000  0.000  0.987  0.000
  0.000  0.000  0.000  0.000  0.969
   spin  2
    eigenvalues: 
  0.447  0.447  0.579  0.579  0.579
    eigenvectors:
  0.750  0.250  0.000  0.000  0.000
  0.000  0.000  0.000  0.073  0.927
  0.000  0.000  1.000  0.000  0.000
  0.250  0.750  0.000  0.000  0.000
  0.000  0.000  0.000  0.927  0.073
    occupations:
  0.447  0.000  0.000  0.000  0.000
  0.000  0.579  0.000  0.000  0.000
  0.000  0.000  0.579  0.000  0.000
  0.000  0.000  0.000  0.447  0.000
  0.000  0.000  0.000  0.000  0.579
atomic mag. moment =     2.250495
atom    6   Tr[ns(na)] (up, down, total) =   4.88194  2.63144  7.51338
   spin  1
    eigenvalues: 
  0.969  0.969  0.969  0.987  0.988
    eigenvectors:
  0.000  0.000  0.000  0.250  0.750
  0.000  0.000  1.000  0.000  0.000
  0.345  0.655  0.000  0.000  0.000
  0.000  0.000  0.000  0.750  0.250
  0.655  0.345  0.000  0.000  0.000
    occupations:
  0.987  0.000  0.000  0.000  0.000
  0.000  0.969  0.000  0.000  0.000
  0.000  0.000  0.969  0.000  0.000
  0.000  0.000  0.000  0.987  0.000
  0.000  0.000  0.000  0.000  0.969
   spin  2
    eigenvalues: 
  0.447  0.447  0.579  0.579  0.579
    eigenvectors:
  0.750  0.250  0.000  0.000  0.000
  0.000  0.000  1.000  0.000  0.000
  0.000  0.000  0.000  0.349  0.651
  0.250  0.750  0.000  0.000  0.000
  0.000  0.000  0.000  0.651  0.349
    occupations:
  0.447  0.000  0.000  0.000  0.000
  0.000  0.579  0.000  0.000  0.000
  0.000  0.000  0.579  0.000  0.000
  0.000  0.000  0.000  0.447  0.000
  0.000  0.000  0.000  0.000  0.579
atomic mag. moment =     2.250495
atom    7   Tr[ns(na)] (up, down, total) =   4.88194  2.63144  7.51338
   spin  1
    eigenvalues: 
  0.969  0.969  0.969  0.987  0.988
    eigenvectors:
  0.000  0.000  0.000  1.000  0.000
  0.227  0.773  0.000  0.000  0.000
  0.773  0.227  0.000  0.000  0.000
  0.000  0.000  0.000  0.000  1.000
  0.000  0.000  1.000  0.000  0.000
    occupations:
  0.987  0.000  0.000  0.000  0.000
  0.000  0.969  0.000  0.000  0.000
  0.000  0.000  0.969  0.000  0.000
  0.000  0.000  0.000  0.988  0.000
  0.000  0.000  0.000  0.000  0.969
   spin  2
    eigenvalues: 
  0.447  0.447  0.579  0.579  0.579
    eigenvectors:
  0.000  1.000  0.000  0.000  0.000
  0.000  0.000  0.000  0.279  0.721
  0.000  0.000  0.000  0.721  0.279
  1.000  0.000  0.000  0.000  0.000
  0.000  0.000  1.000  0.000  0.000
    occupations:
  0.447  0.000  0.000  0.000  0.000
  0.000  0.579  0.000  0.000  0.000
  0.000  0.000  0.579  0.000  0.000
  0.000  0.000  0.000  0.447  0.000
  0.000  0.000  0.000  0.000  0.579
atomic mag. moment =     2.250495
atom    8   Tr[ns(na)] (up, down, total) =   4.88172  2.62948  7.51120
   spin  1
    eigenvalues: 
  0.969  0.969  0.969  0.987  0.987
    eigenvectors:
  0.000  0.000  0.000  0.661  0.339
  0.333  0.664  0.003  0.000  0.000
  0.333  0.129  0.538  0.000  0.000
  0.000  0.000  0.000  0.339  0.661
  0.333  0.208  0.459  0.000  0.000
    occupations:
  0.987  0.000  0.000  0.000  0.000
  0.000  0.969  0.000  0.000  0.000
  0.000  0.000  0.969  0.000  0.000
  0.000  0.000  0.000  0.987  0.000
  0.000  0.000  0.000  0.000  0.969
   spin  2
    eigenvalues: 
  0.446  0.446  0.579  0.579  0.579
    eigenvectors:
  0.569  0.431  0.000  0.000  0.000
  0.000  0.000  0.333  0.663  0.003
  0.000  0.000  0.333  0.127  0.540
  0.431  0.569  0.000  0.000  0.000
  0.000  0.000  0.333  0.210  0.457
    occupations:
  0.446  0.000  0.000  0.000  0.000
  0.000  0.579  0.000  0.000  0.000
  0.000  0.000  0.579  0.000  0.000
  0.000  0.000  0.000  0.446  0.000
  0.000  0.000  0.000  0.000  0.579
atomic mag. moment =     2.252248
N of occupied +U levels =   60.111776
 --- exit write_ns ---
 --- in v_hubbard ---
Hubbard energy   -0.0276
 -------
 
     Magnetic moment per site:
     atom:    1    charge:    6.4811    magn:    2.5121    constr:    0.0000
     atom:    2    charge:    6.4772    magn:    2.5258    constr:    0.0000
     atom:    3    charge:    6.4772    magn:    2.5258    constr:    0.0000
     atom:    4    charge:    6.4772    magn:    2.5258    constr:    0.0000
     atom:    5    charge:    6.4775    magn:    2.5252    constr:    0.0000
     atom:    6    charge:    6.4775    magn:    2.5252    constr:    0.0000
     atom:    7    charge:    6.4775    magn:    2.5252    constr:    0.0000
     atom:    8    charge:    6.4772    magn:    2.5258    constr:    0.0000

     total cpu time spent up to now is       27.8 secs

     total energy              =    -446.44193742 Ry
     Harris-Foulkes estimate   =    -446.44193608 Ry
     estimated scf accuracy    <       0.00000853 Ry

     total magnetization       =    19.53 Bohr mag/cell
     absolute magnetization    =    20.98 Bohr mag/cell

     iteration #  5     ecut=    30.00 Ry     beta=0.30
     Davidson diagonalization with overlap
     ethr =  1.33E-08,  avg # of iterations =  1.0
 --- enter write_ns ---
 LDA+U parameters:
U( 1)     =  0.00000000
alpha( 1) = -0.05000000
U( 2)     =  0.00000000
alpha( 2) =  0.00000000
atom    1   Tr[ns(na)] (up, down, total) =   4.87929  2.64758  7.52687
   spin  1
    eigenvalues: 
  0.968  0.968  0.968  0.987  0.987
    eigenvectors:
  0.000  0.000  0.000  0.632  0.368
  0.073  0.369  0.558  0.000  0.000
  0.359  0.251  0.390  0.000  0.000
  0.000  0.000  0.000  0.368  0.632
  0.568  0.380  0.052  0.000  0.000
    occupations:
  0.987  0.000  0.000  0.000  0.000
  0.000  0.968  0.000  0.000  0.000
  0.000  0.000  0.968  0.000  0.000
  0.000  0.000  0.000  0.987  0.000
  0.000  0.000  0.000  0.000  0.968
   spin  2
    eigenvalues: 
  0.450  0.450  0.583  0.583  0.583
    eigenvectors:
  0.602  0.398  0.000  0.000  0.000
  0.000  0.000  0.076  0.445  0.479
  0.000  0.000  0.345  0.205  0.450
  0.398  0.602  0.000  0.000  0.000
  0.000  0.000  0.578  0.351  0.071
    occupations:
  0.450  0.000  0.000  0.000  0.000
  0.000  0.583  0.000  0.000  0.000
  0.000  0.000  0.583  0.000  0.000
  0.000  0.000  0.000  0.450  0.000
  0.000  0.000  0.000  0.000  0.583
atomic mag. moment =     2.231714
atom    2   Tr[ns(na)] (up, down, total) =   4.88182  2.62993  7.51175
   spin  1
    eigenvalues: 
  0.969  0.969  0.969  0.987  0.987
    eigenvectors:
  0.000  0.000  0.000  0.616  0.384
  0.333  0.410  0.257  0.000  0.000
  0.333  0.014  0.652  0.000  0.000
  0.000  0.000  0.000  0.384  0.616
  0.333  0.576  0.090  0.000  0.000
    occupations:
  0.987  0.000  0.000  0.000  0.000
  0.000  0.969  0.000  0.000  0.000
  0.000  0.000  0.969  0.000  0.000
  0.000  0.000  0.000  0.987  0.000
  0.000  0.000  0.000  0.000  0.969
   spin  2
    eigenvalues: 
  0.446  0.446  0.579  0.579  0.579
    eigenvectors:
  0.671  0.329  0.000  0.000  0.000
  0.000  0.000  0.333  0.419  0.248
  0.000  0.000  0.333  0.012  0.655
  0.329  0.671  0.000  0.000  0.000
  0.000  0.000  0.333  0.570  0.097
    occupations:
  0.446  0.000  0.000  0.000  0.000
  0.000  0.579  0.000  0.000  0.000
  0.000  0.000  0.579  0.000  0.000
  0.000  0.000  0.000  0.446  0.000
  0.000  0.000  0.000  0.000  0.579
atomic mag. moment =     2.251881
atom    3   Tr[ns(na)] (up, down, total) =   4.88182  2.62993  7.51175
   spin  1
    eigenvalues: 
  0.969  0.969  0.969  0.987  0.987
    eigenvectors:
[...]
    11.7081  11.7081  11.8327  11.8327  11.8327  11.8349  11.8426  11.8426
    12.7313  12.7313  12.7313  12.9812  12.9812  12.9812  12.9875  12.9875
    12.9875  13.5705  13.5705  13.5705  13.5791  13.5791  13.5791  19.8735
    19.8735  19.8835

     occupation numbers 
     1.0000   1.0000   1.0000   1.0000   1.0000   1.0000   1.0000   1.0000
     1.0000   1.0000   1.0000   1.0000   1.0000   1.0000   1.0000   1.0000
     1.0000   1.0000   1.0000   1.0000   1.0000   1.0000   1.0000   1.0000
     1.0000   1.0000   1.0000   1.0000   1.0000   1.0000   1.0000   1.0000
     0.8930   0.8930   0.8930  -0.0348  -0.0348  -0.0348  -0.0337  -0.0337
    -0.0337   0.0000   0.0000   0.0000   0.0000   0.0000   0.0000   0.0000
     0.0000   0.0000

          k = 0.0000-0.2500 0.2500 (  1773 PWs)   bands (ev):

     5.3647   8.0079   8.3663   8.3684   8.3692   8.3721   8.3953   8.4082
     8.4447   9.5456   9.5456   9.5459   9.5461   9.5989   9.8328  10.3069
    10.4421  10.6005  10.7830  11.0843  11.0867  11.0878  11.0887  11.4587
    11.4728  11.5366  11.6682  11.6696  11.6708  11.6714  11.6808  11.7997
    11.8645  12.0911  12.2078  12.2097  12.2103  12.2159  12.2620  12.5533
    12.7679  12.9467  14.6102  14.6121  14.6132  14.6159  15.2750  19.9891
    20.8489  20.9771

     occupation numbers 
     1.0000   1.0000   1.0000   1.0000   1.0000   1.0000   1.0000   1.0000
     1.0000   1.0000   1.0000   1.0000   1.0000   1.0000   1.0000   1.0000
     1.0000   1.0000   1.0000   1.0000   1.0000   1.0000   1.0000   1.0000
     1.0000   1.0000   1.0000   1.0000   1.0000   1.0000   1.0000   1.0000
     1.0000   1.0000   1.0000   1.0000   1.0000   1.0000   1.0000   1.0125
     0.7228  -0.0288   0.0000   0.0000   0.0000   0.0000   0.0000   0.0000
     0.0000   0.0000

          k = 0.0000 0.5000-0.5000 (  1766 PWs)   bands (ev):

     6.9432   6.9441   8.7513   8.7547   8.9096   8.9165   8.9166   8.9168
     9.2689   9.2724   9.5610   9.5616   9.5624   9.5638   9.9435   9.9454
    10.1891  10.1894  10.1906  10.1910  10.3966  10.3991  10.8411  10.8435
    11.4283  11.4314  11.4968  11.5005  11.6018  11.6029  11.6042  11.6077
    11.6117  11.6172  11.7262  11.7307  12.0221  12.0222  12.0232  12.0326
    12.8539  12.8603  15.0304  15.0317  15.0361  15.0380  17.9588  17.9608
    20.4758  20.4821

     occupation numbers 
     1.0000   1.0000   1.0000   1.0000   1.0000   1.0000   1.0000   1.0000
     1.0000   1.0000   1.0000   1.0000   1.0000   1.0000   1.0000   1.0000
     1.0000   1.0000   1.0000   1.0000   1.0000   1.0000   1.0000   1.0000
     1.0000   1.0000   1.0000   1.0000   1.0000   1.0000   1.0000   1.0000
     1.0000   1.0000   1.0000   1.0000   1.0000   1.0000   1.0000   1.0000
     0.2178   0.1868   0.0000   0.0000   0.0000   0.0000   0.0000   0.0000
     0.0000   0.0000

          k =-0.2500 0.7500-0.5000 (  1758 PWs)   bands (ev):

     6.4979   8.0310   8.0365   8.8488   8.8735   8.8786   8.8799   8.8829
     9.0016   9.4961   9.5959   9.7010   9.7018   9.7719   9.7722  10.1432
    10.1512  10.1569  10.1574  10.1886  10.2366  10.2522  10.2546  10.9705
    11.3976  11.4557  11.4855  11.4870  11.5190  11.5200  11.7368  11.7612
    11.7718  11.8137  11.8825  11.8839  12.0088  12.0784  12.5195  12.5216
    12.5790  12.7093  12.7113  14.7144  16.1403  16.1448  17.6748  18.3336
    20.2216  21.5612

     occupation numbers 
     1.0000   1.0000   1.0000   1.0000   1.0000   1.0000   1.0000   1.0000
     1.0000   1.0000   1.0000   1.0000   1.0000   1.0000   1.0000   1.0000
     1.0000   1.0000   1.0000   1.0000   1.0000   1.0000   1.0000   1.0000
     1.0000   1.0000   1.0000   1.0000   1.0000   1.0000   1.0000   1.0000
     1.0000   1.0000   1.0000   1.0000   1.0000   1.0000   1.0057   1.0060
     1.0202   0.9615   0.9564   0.0000   0.0000   0.0000   0.0000   0.0000
     0.0000   0.0000

          k = 0.0000 0.0000 0.5000 (  1773 PWs)   bands (ev):

     5.9566   8.3779   8.3811   8.3811   8.3875   8.6158   8.6671   8.8012
     8.8048   9.4042   9.4042   9.9563   9.9568   9.9568   9.9574  10.3261
    10.3262  10.3262  10.3292  10.4941  10.4941  10.7832  10.8529  10.8529
    11.1524  11.4480  11.4489  11.4489  11.4505  11.7924  11.7967  11.8491
    11.8562  11.8692  11.9447  11.9447  12.3871  12.4979  12.5014  12.5014
    12.5026  13.3118  13.3118  13.3162  13.3179  16.8336  16.8336  17.6188
    20.1641  20.1649

     occupation numbers 
     1.0000   1.0000   1.0000   1.0000   1.0000   1.0000   1.0000   1.0000
     1.0000   1.0000   1.0000   1.0000   1.0000   1.0000   1.0000   1.0000
     1.0000   1.0000   1.0000   1.0000   1.0000   1.0000   1.0000   1.0000
     1.0000   1.0000   1.0000   1.0000   1.0000   1.0000   1.0000   1.0000
     1.0000   1.0000   1.0000   1.0000   1.0001   1.0032   1.0035   1.0035
     1.0036   0.0000   0.0000   0.0000   0.0000   0.0000   0.0000   0.0000
     0.0000   0.0000

          k = 0.0000 0.7500-0.2500 (  1780 PWs)   bands (ev):

     7.4282   7.4320   8.5935   8.5942   8.8664   8.8667   9.2322   9.2342
     9.3101   9.3122   9.5940   9.5957   9.7200   9.7210  10.0526  10.0528
    10.2591  10.2613  10.2985  10.3001  10.4241  10.4247  10.9087  10.9111
    11.0739  11.0761  11.1854  11.1867  11.3172  11.3202  11.5397  11.5438
    11.8231  11.8284  11.8709  11.8773  12.0830  12.0871  12.1260  12.1289
    12.3806  12.3858  13.3394  13.3450  15.1080  15.1094  17.7625  17.7630
    21.9268  21.9281

     occupation numbers 
     1.0000   1.0000   1.0000   1.0000   1.0000   1.0000   1.0000   1.0000
     1.0000   1.0000   1.0000   1.0000   1.0000   1.0000   1.0000   1.0000
     1.0000   1.0000   1.0000   1.0000   1.0000   1.0000   1.0000   1.0000
     1.0000   1.0000   1.0000   1.0000   1.0000   1.0000   1.0000   1.0000
     1.0000   1.0000   1.0000   1.0000   1.0000   1.0000   1.0000   1.0000
     1.0000   1.0001   0.0000   0.0000   0.0000   0.0000   0.0000   0.0000
     0.0000   0.0000

          k = 0.5000-0.5000 0.5000 (  1772 PWs)   bands (ev):

     7.9190   7.9190   7.9190   7.9303   9.3936   9.3936   9.3969   9.3969
     9.3969   9.3976   9.3976   9.3976   9.7702   9.7702   9.7705   9.7705
     9.7705   9.7716   9.7716   9.7716   9.7951   9.7951   9.7951   9.7952
    11.6714  11.6714  11.6714  11.6721  11.6721  11.6721  11.6788  11.6788
    12.1184  12.1184  12.1184  12.1209  12.1209  12.1238  12.1238  12.1238
    12.7361  12.7409  12.7409  12.7409  19.8083  19.8134  19.8143  19.8177
    19.8182  19.8183

     occupation numbers 
     1.0000   1.0000   1.0000   1.0000   1.0000   1.0000   1.0000   1.0000
     1.0000   1.0000   1.0000   1.0000   1.0000   1.0000   1.0000   1.0000
     1.0000   1.0000   1.0000   1.0000   1.0000   1.0000   1.0000   1.0000
     1.0000   1.0000   1.0000   1.0000   1.0000   1.0000   1.0000   1.0000
     1.0000   1.0000   1.0000   1.0000   1.0000   1.0000   1.0000   1.0000
     0.8745   0.8548   0.8548   0.8548   0.0000   0.0000   0.0000   0.0000
     0.0000   0.0000

          k = 0.0000 0.0000-1.0000 (  1830 PWs)   bands (ev):

     8.4130   8.4130   8.4237   8.4237   8.4237   8.4312   9.6533   9.6533
     9.6533   9.6552   9.6552   9.6552   9.8997   9.8997   9.8997   9.9010
     9.9020   9.9020  10.8948  10.8948  10.8948  10.8953  10.8953  10.8953
    10.8961  10.8961  10.8961  10.9007  10.9007  10.9007  11.5699  11.5699
    11.5699  11.5756  11.5756  11.5756  11.8658  11.8658  11.8729  11.8729
    12.9594  12.9594  12.9594  12.9650  12.9710  12.9710  21.3179  21.3183
    21.3198  21.3205

     occupation numbers 
     1.0000   1.0000   1.0000   1.0000   1.0000   1.0000   1.0000   1.0000
     1.0000   1.0000   1.0000   1.0000   1.0000   1.0000   1.0000   1.0000
     1.0000   1.0000   1.0000   1.0000   1.0000   1.0000   1.0000   1.0000
     1.0000   1.0000   1.0000   1.0000   1.0000   1.0000   1.0000   1.0000
     1.0000   1.0000   1.0000   1.0000   1.0000   1.0000   1.0000   1.0000
    -0.0340  -0.0340  -0.0340  -0.0350  -0.0355  -0.0355   0.0000   0.0000
     0.0000   0.0000

 ------ SPIN DOWN ----------


          k = 0.0000 0.0000 0.0000 (  1745 PWs)   bands (ev):

     4.8036   9.5948   9.5948   9.5948   9.5971   9.5971   9.6066  10.2378
    10.2378  11.6709  11.6709  11.6709  11.6771  11.6771  11.6771  12.9371
    12.9371  12.9371  13.5457  13.5457  13.5457  13.5534  13.5534  13.5534
    14.7201  14.7201  14.7224  14.7224  14.7224  14.7234  14.8349  14.8349
    15.0885  15.0885  15.0920  15.0920  15.0920  15.0921  15.5596  15.5596
    15.5596  15.8539  15.8539  15.8539  15.8556  15.8556  15.8556  21.4977
    21.4982  21.5015

     occupation numbers 
     1.0000   1.0000   1.0000   1.0000   1.0000   1.0000   1.0000   1.0000
     1.0000   1.0000   1.0000   1.0000   1.0000   1.0000   1.0000  -0.0217
    -0.0217  -0.0217   0.0000   0.0000   0.0000   0.0000   0.0000   0.0000
     0.0000   0.0000   0.0000   0.0000   0.0000   0.0000   0.0000   0.0000
     0.0000   0.0000   0.0000   0.0000   0.0000   0.0000   0.0000   0.0000
     0.0000   0.0000   0.0000   0.0000   0.0000   0.0000   0.0000   0.0000
     0.0000   0.0000

          k = 0.0000-0.2500 0.2500 (  1773 PWs)   bands (ev):

     5.4306   9.0113   9.8231   9.8279   9.8291   9.8325  10.0304  10.4807
    10.4963  11.7285  11.7301  11.7307  11.7336  11.8451  12.0846  12.4141
    12.5909  12.5921  12.5926  12.5952  12.6794  12.7366  12.8768  13.2966
    14.3018  14.6459  14.6510  14.6532  14.6539  14.6542  14.6589  14.7157
    14.8522  14.8879  15.0316  15.1841  15.1867  15.1868  15.1871  15.3374
    15.6022  15.8106  16.5391  16.5394  16.5399  16.5400  16.6440  21.4950
    21.5214  22.2841

     occupation numbers 
     1.0000   1.0000   1.0000   1.0000   1.0000   1.0000   1.0000   1.0000
     1.0000   1.0000   1.0000   1.0000   1.0000   1.0000   1.0000   1.0002
     1.0242   1.0246   1.0248   1.0257   1.0154   0.8723   0.1161   0.0000
     0.0000   0.0000   0.0000   0.0000   0.0000   0.0000   0.0000   0.0000
     0.0000   0.0000   0.0000   0.0000   0.0000   0.0000   0.0000   0.0000
     0.0000   0.0000   0.0000   0.0000   0.0000   0.0000   0.0000   0.0000
     0.0000   0.0000

          k = 0.0000 0.5000-0.5000 (  1766 PWs)   bands (ev):

     7.1273   7.1279  10.1694  10.1811  10.1832  10.1843  10.7106  10.7190
    11.2092  11.2188  11.5822  11.5870  11.5925  11.5933  12.0214  12.0296
    12.0318  12.0332  12.2737  12.2793  12.5726  12.5777  13.2194  13.2247
    13.9378  13.9423  14.2390  14.2427  14.5153  14.5182  14.5644  14.5669
    14.5687  14.5691  14.9197  14.9225  15.1077  15.1105  15.1114  15.1114
    15.7049  15.7073  17.0513  17.0520  17.0522  17.0531  19.0372  19.0392
    21.6957  21.6998

     occupation numbers 
     1.0000   1.0000   1.0000   1.0000   1.0000   1.0000   1.0000   1.0000
     1.0000   1.0000   1.0000   1.0000   1.0000   1.0000   1.0000   1.0000
     1.0000   1.0000   1.0000   1.0000   1.0181   1.0198  -0.0001  -0.0001
     0.0000   0.0000   0.0000   0.0000   0.0000   0.0000   0.0000   0.0000
     0.0000   0.0000   0.0000   0.0000   0.0000   0.0000   0.0000   0.0000
     0.0000   0.0000   0.0000   0.0000   0.0000   0.0000   0.0000   0.0000
     0.0000   0.0000

          k =-0.2500 0.7500-0.5000 (  1758 PWs)   bands (ev):

     6.6054   8.5334   8.5391   9.9692  10.5298  10.5360  10.7645  10.7686
    10.9763  11.6048  11.6188  11.6479  11.6534  11.7940  11.9271  12.0132
    12.0158  12.2195  12.2234  12.3540  12.3550  12.4900  12.5461  13.3026
    14.0180  14.2435  14.2438  14.4246  14.4537  14.4548  14.6195  14.7500
    14.8548  14.9570  15.0224  15.0234  15.0415  15.0845  15.2856  15.2858
    15.3289  15.3305  15.3483  16.8399  17.7368  17.7392  19.0287  19.4688
    21.5534  22.7222

     occupation numbers 
     1.0000   1.0000   1.0000   1.0000   1.0000   1.0000   1.0000   1.0000
     1.0000   1.0000   1.0000   1.0000   1.0000   1.0000   1.0000   1.0000
     1.0000   1.0000   1.0000   1.0000   1.0000   1.0025   1.0108   0.0000
     0.0000   0.0000   0.0000   0.0000   0.0000   0.0000   0.0000   0.0000
     0.0000   0.0000   0.0000   0.0000   0.0000   0.0000   0.0000   0.0000
     0.0000   0.0000   0.0000   0.0000   0.0000   0.0000   0.0000   0.0000
     0.0000   0.0000

          k = 0.0000 0.0000 0.5000 (  1773 PWs)   bands (ev):

     6.0349   9.4516   9.4568   9.4568   9.4646  10.4324  10.4392  10.4601
    10.8609  11.4732  11.4732  12.2223  12.2271  12.2274  12.2274  12.2342
    12.2385  12.2385  12.2408  12.2757  12.2757  12.9168  12.9168  13.3033
    14.1260  14.2158  14.2176  14.2176  14.2177  14.4946  14.4946  14.9102
    14.9120  15.0815  15.1128  15.1151  15.1570  15.2728  15.2738  15.2738
    15.2748  15.6934  15.6936  15.6936  15.6940  18.2448  18.2448  18.6617
    21.5731  21.5740

     occupation numbers 
     1.0000   1.0000   1.0000   1.0000   1.0000   1.0000   1.0000   1.0000
     1.0000   1.0000   1.0000   1.0000   1.0000   1.0000   1.0000   1.0000
     1.0000   1.0000   1.0000   1.0000   1.0000   0.0050   0.0050   0.0000
     0.0000   0.0000   0.0000   0.0000   0.0000   0.0000   0.0000   0.0000
     0.0000   0.0000   0.0000   0.0000   0.0000   0.0000   0.0000   0.0000
     0.0000   0.0000   0.0000   0.0000   0.0000   0.0000   0.0000   0.0000
     0.0000   0.0000

          k = 0.0000 0.7500-0.2500 (  1780 PWs)   bands (ev):

     7.6564   7.6596   9.3261   9.3280  10.2599  10.2628  11.0119  11.0199
    11.4357  11.4424  11.5443  11.5450  11.6426  11.6500  12.0058  12.0073
    12.6135  12.6187  12.6384  12.6434  12.6653  12.6654  13.2982  13.3030
    13.8180  13.8223  13.8299  13.8322  13.8484  13.8487  14.1540  14.1575
    14.9017  14.9023  15.0058  15.0078  15.1025  15.1046  15.1336  15.1362
    15.2620  15.2630  15.8248  15.8254  16.8576  16.8590  19.2281  19.2283
    22.9365  22.9378

     occupation numbers 
     1.0000   1.0000   1.0000   1.0000   1.0000   1.0000   1.0000   1.0000
     1.0000   1.0000   1.0000   1.0000   1.0000   1.0000   1.0000   1.0000
     1.0314   1.0328   1.0355   1.0353   1.0278   1.0277   0.0000   0.0000
     0.0000   0.0000   0.0000   0.0000   0.0000   0.0000   0.0000   0.0000
     0.0000   0.0000   0.0000   0.0000   0.0000   0.0000   0.0000   0.0000
     0.0000   0.0000   0.0000   0.0000   0.0000   0.0000   0.0000   0.0000
     0.0000   0.0000

          k = 0.5000-0.5000 0.5000 (  1772 PWs)   bands (ev):

     8.1681   8.1681   8.1681   8.1782  11.3416  11.3416  11.3528  11.3528
    11.3528  11.3528  11.3528  11.3528  11.8618  11.8618  11.8618  11.8671
    11.9839  11.9839  11.9839  11.9901  11.9901  11.9913  11.9913  11.9913
    14.8097  14.8097  14.8148  14.8148  14.8148  14.8148  14.8148  14.8148
    14.8857  14.8857  14.8857  14.8879  14.8879  14.8888  14.8888  14.8888
    15.2623  15.2623  15.2623  15.2632  20.9958  20.9958  21.0001  21.0002
    21.0023  21.0024

     occupation numbers 
     1.0000   1.0000   1.0000   1.0000   1.0000   1.0000   1.0000   1.0000
     1.0000   1.0000   1.0000   1.0000   1.0000   1.0000   1.0000   1.0000
     1.0000   1.0000   1.0000   1.0000   1.0000   1.0000   1.0000   1.0000
     0.0000   0.0000   0.0000   0.0000   0.0000   0.0000   0.0000   0.0000
     0.0000   0.0000   0.0000   0.0000   0.0000   0.0000   0.0000   0.0000
     0.0000   0.0000   0.0000   0.0000   0.0000   0.0000   0.0000   0.0000
     0.0000   0.0000

          k = 0.0000 0.0000-1.0000 (  1830 PWs)   bands (ev):

     8.9723   8.9723   8.9846   8.9846   8.9846   8.9912  11.4202  11.4202
    11.4202  11.4288  11.4288  11.4288  12.4398  12.4398  12.4483  12.4492
    12.4492  12.4492  13.2748  13.2748  13.2748  13.2834  13.2834  13.2834
    13.2839  13.2839  13.2839  13.2840  13.2840  13.2840  14.2100  14.2100
    14.2100  14.2123  14.2124  14.2124  15.1365  15.1365  15.1387  15.1387
    15.6737  15.6737  15.6737  15.6741  15.6741  15.6754  22.3401  22.3422
    22.3422  22.3422

     occupation numbers 
     1.0000   1.0000   1.0000   1.0000   1.0000   1.0000   1.0000   1.0000
     1.0000   1.0000   1.0000   1.0000   1.0005   1.0005   1.0007   1.0007
     1.0007   1.0007   0.0000   0.0000   0.0000   0.0000   0.0000   0.0000
     0.0000   0.0000   0.0000   0.0000   0.0000   0.0000   0.0000   0.0000
     0.0000   0.0000   0.0000   0.0000   0.0000   0.0000   0.0000   0.0000
     0.0000   0.0000   0.0000   0.0000   0.0000   0.0000   0.0000   0.0000
     0.0000   0.0000

     the Fermi energy is    12.8052 ev

!    total energy              =    -446.44193965 Ry
     Harris-Foulkes estimate   =    -446.44193964 Ry
     estimated scf accuracy    <          9.1E-10 Ry

     The total energy is the sum of the following terms:

     one-electron contribution =      55.34565231 Ry
     hartree contribution      =      53.60096553 Ry
     xc contribution           =    -211.58214414 Ry
     ewald contribution        =    -343.77998637 Ry
     Hubbard energy            =      -0.02766365 Ry
     smearing contrib. (-TS)   =       0.00123667 Ry

     total magnetization       =    19.53 Bohr mag/cell
     absolute magnetization    =    20.97 Bohr mag/cell

     convergence has been achieved in  10 iterations

     Writing output data file fe.save
 
     init_run     :      1.97s CPU      2.00s WALL (       1 calls)
     electrons    :     52.18s CPU     52.53s WALL (       1 calls)

     Called by init_run:
     wfcinit      :      0.13s CPU      0.13s WALL (       1 calls)
     potinit      :      0.27s CPU      0.28s WALL (       1 calls)

     Called by electrons:
     c_bands      :     34.85s CPU     35.10s WALL (      10 calls)
     sum_band     :     11.49s CPU     11.55s WALL (      10 calls)
     v_of_rho     :      1.44s CPU      1.48s WALL (      11 calls)
     v_h          :      0.04s CPU      0.04s WALL (      11 calls)
     v_xc         :      1.40s CPU      1.44s WALL (      11 calls)
     newd         :      4.65s CPU      4.68s WALL (      11 calls)
     mix_rho      :      0.14s CPU      0.13s WALL (      10 calls)

     Called by c_bands:
     init_us_2    :      0.20s CPU      0.20s WALL (     336 calls)
     cegterg      :     33.12s CPU     33.33s WALL (     160 calls)

     Called by sum_band:
     sum_band:bec :      0.08s CPU      0.08s WALL (     160 calls)
     addusdens    :      6.68s CPU      6.70s WALL (      10 calls)

     Called by *egterg:
     h_psi        :     20.31s CPU     20.43s WALL (     682 calls)
     s_psi        :      1.59s CPU      1.58s WALL (     698 calls)
     g_psi        :      0.18s CPU      0.16s WALL (     522 calls)
     cdiaghg      :      6.66s CPU      6.73s WALL (     666 calls)
     cegterg:over :      1.60s CPU      1.68s WALL (     522 calls)
     cegterg:upda :      1.04s CPU      1.02s WALL (     522 calls)
     cegterg:last :      0.74s CPU      0.72s WALL (     178 calls)

     Called by h_psi:
     h_psi:vloc   :     15.65s CPU     15.71s WALL (     682 calls)
     h_psi:vnl    :      3.22s CPU      3.28s WALL (     682 calls)
     add_vuspsi   :      1.56s CPU      1.58s WALL (     682 calls)
     vhpsi        :      1.40s CPU      1.40s WALL (     682 calls)

     General routines
     calbec       :      3.05s CPU      3.07s WALL (    1700 calls)
     fft          :      0.90s CPU      0.90s WALL (     329 calls)
     ffts         :      0.02s CPU      0.02s WALL (      42 calls)
     fftw         :     15.42s CPU     15.50s WALL (   48924 calls)
     interpolate  :      0.14s CPU      0.14s WALL (      42 calls)
     davcio       :      0.00s CPU      0.01s WALL (      48 calls)
 
     Parallel routines
     fft_scatter  :      3.80s CPU      3.64s WALL (   49295 calls)
     Hubbard U routines
     new_ns       :      0.26s CPU      0.26s WALL (      10 calls)
     vhpsi        :      1.40s CPU      1.40s WALL (     682 calls)
 
     PWSCF        :    54.36s CPU        54.79s WALL

 
   This run was terminated on:  17:43:12  30Jun2014            

=------------------------------------------------------------------------------=
   JOB DONE.
=------------------------------------------------------------------------------=
