
     Program PWSCF v.5.1 starts on 30Jun2014 at 17:40:24 

     This program is part of the open-source Quantum ESPRESSO suite
     for quantum simulation of materials; please cite
         "P. Giannozzi et al., J. Phys.:Condens. Matter 21 395502 (2009);
          URL http://www.quantum-espresso.org", 
     in publications or presentations arising from this work. More details at
     http://www.quantum-espresso.org/quote

     Parallel version (MPI), running on     4 processors
     R & G space division:  proc/nbgrp/npool/nimage =       4
     Waiting for input...
     Reading input from standard input

     Current dimensions of program PWSCF are:
     Max number of different atomic species (ntypx) = 10
     Max number of k-points (npk) =  40000
     Max angular momentum in pseudopotentials (lmaxx) =  3
               file Fe.pbe-nd-rrkjus.UPF: wavefunction(s)  4S renormalized
               file Fe.pbe-nd-rrkjus.UPF: wavefunction(s)  4S renormalized

     Subspace diagonalization in iterative solution of the eigenvalue problem:
     a serial algorithm will be used

 
     Parallelization info
     --------------------
     sticks:   dense  smooth     PW     G-vecs:    dense   smooth      PW
     Min         595     199     60                18379     3540     586
     Max         596     200     61                18382     3545     587
     Sum        2383     797    241                73525    14171    2347
 
     Generating pointlists ...
     new r_m :   0.1786 (alat units)  1.9362 (a.u.) for type    1
     new r_m :   0.1786 (alat units)  1.9362 (a.u.) for type    2


     bravais-lattice index     =            3
     lattice parameter (alat)  =      10.8400  a.u.
     unit-cell volume          =     636.8804 (a.u.)^3
     number of atoms/cell      =            8
     number of atomic types    =            2
     number of electrons       =        64.00
     number of Kohn-Sham states=           50
     kinetic-energy cutoff     =      30.0000  Ry
     charge density cutoff     =     360.0000  Ry
     convergence threshold     =      1.0E-09
     mixing beta               =       0.3000
     number of iterations used =            8  plain     mixing
     Exchange-correlation      =  SLA  PW   PBE  PBE ( 1  4  3  4 0)

     celldm(1)=  10.840000  celldm(2)=   0.000000  celldm(3)=   0.000000
     celldm(4)=   0.000000  celldm(5)=   0.000000  celldm(6)=   0.000000

     crystal axes: (cart. coord. in units of alat)
               a(1) = (   0.500000   0.500000   0.500000 )  
               a(2) = (  -0.500000   0.500000   0.500000 )  
               a(3) = (  -0.500000  -0.500000   0.500000 )  

     reciprocal axes: (cart. coord. in units 2 pi/alat)
               b(1) = (  1.000000  0.000000  1.000000 )  
               b(2) = ( -1.000000  1.000000  0.000000 )  
               b(3) = (  0.000000 -1.000000  1.000000 )  


     PseudoPot. # 1 for Fe read from file:
     ../pseudo/Fe.pbe-nd-rrkjus.UPF
     MD5 check sum: 23c640529ef232ac9996b4ec1b0ce2fd
     Pseudo is Ultrasoft + core correction, Zval =  8.0
     Generated by new atomic code, or converted to UPF format
     Using radial grid of  957 points,  6 beta functions with: 
                l(1) =   0
                l(2) =   0
                l(3) =   1
                l(4) =   1
                l(5) =   2
                l(6) =   2
     Q(r) pseudized with 0 coefficients 


     PseudoPot. # 2 for Fe read from file:
     ../pseudo/Fe.pbe-nd-rrkjus.UPF
     MD5 check sum: 23c640529ef232ac9996b4ec1b0ce2fd
     Pseudo is Ultrasoft + core correction, Zval =  8.0
     Generated by new atomic code, or converted to UPF format
     Using radial grid of  957 points,  6 beta functions with: 
                l(1) =   0
                l(2) =   0
                l(3) =   1
                l(4) =   1
                l(5) =   2
                l(6) =   2
     Q(r) pseudized with 0 coefficients 


     atomic species   valence    mass     pseudopotential
        Fe1            8.00     1.00000     Fe( 1.00)
        Fe             8.00     1.00000     Fe( 1.00)

     Starting magnetic structure 
     atomic species   magnetization
        Fe1          0.600
        Fe           0.600


     Simplified LDA+U calculation (l_max = 2) with parameters (eV):
     atomic species    L          U    alpha       J0     beta
        Fe1            2     0.0000   0.0000   0.0000   0.0000
        Fe             2     0.0000   0.0000   0.0000   0.0000



     48 Sym. Ops., with inversion, found


                                    s                        frac. trans.

      isym =  1     identity                                     

 cryst.   s( 1) = (     1          0          0      )
                  (     0          1          0      )
                  (     0          0          1      )

 cart.    s( 1) = (  1.0000000  0.0000000  0.0000000 )
                  (  0.0000000  1.0000000  0.0000000 )
                  (  0.0000000  0.0000000  1.0000000 )


      isym =  2     180 deg rotation - cart. axis [0,0,1]        

 cryst.   s( 2) = (     0          0          1      )
                  (     1         -1          1      )
                  (     1          0          0      )

 cart.    s( 2) = ( -1.0000000  0.0000000  0.0000000 )
                  (  0.0000000 -1.0000000  0.0000000 )
                  (  0.0000000  0.0000000  1.0000000 )


      isym =  3     180 deg rotation - cart. axis [0,1,0]        

 cryst.   s( 3) = (    -1          1         -1      )
                  (     0          0         -1      )
                  (     0         -1          0      )

 cart.    s( 3) = ( -1.0000000  0.0000000  0.0000000 )
                  (  0.0000000  1.0000000  0.0000000 )
                  (  0.0000000  0.0000000 -1.0000000 )


      isym =  4     180 deg rotation - cart. axis [1,0,0]        

 cryst.   s( 4) = (     0         -1          0      )
                  (    -1          0          0      )
                  (    -1          1         -1      )

 cart.    s( 4) = (  1.0000000  0.0000000  0.0000000 )
                  (  0.0000000 -1.0000000  0.0000000 )
                  (  0.0000000  0.0000000 -1.0000000 )


      isym =  5     180 deg rotation - cart. axis [1,1,0]        

 cryst.   s( 5) = (     0          0         -1      )
                  (     0         -1          0      )
                  (    -1          0          0      )

 cart.    s( 5) = (  0.0000000  1.0000000  0.0000000 )
                  (  1.0000000  0.0000000  0.0000000 )
                  (  0.0000000  0.0000000 -1.0000000 )


      isym =  6     180 deg rotation - cart. axis [1,-1,0]       

 cryst.   s( 6) = (    -1          0          0      )
                  (    -1          1         -1      )
                  (     0          0         -1      )

 cart.    s( 6) = (  0.0000000 -1.0000000  0.0000000 )
                  ( -1.0000000  0.0000000  0.0000000 )
                  (  0.0000000  0.0000000 -1.0000000 )


      isym =  7      90 deg rotation - cart. axis [0,0,-1]       

 cryst.   s( 7) = (     1         -1          1      )
                  (     1          0          0      )
                  (     0          1          0      )

 cart.    s( 7) = (  0.0000000  1.0000000  0.0000000 )
                  ( -1.0000000  0.0000000  0.0000000 )
                  (  0.0000000  0.0000000  1.0000000 )


      isym =  8      90 deg rotation - cart. axis [0,0,1]        

 cryst.   s( 8) = (     0          1          0      )
                  (     0          0          1      )
                  (     1         -1          1      )

 cart.    s( 8) = (  0.0000000 -1.0000000  0.0000000 )
                  (  1.0000000  0.0000000  0.0000000 )
                  (  0.0000000  0.0000000  1.0000000 )


      isym =  9     180 deg rotation - cart. axis [1,0,1]        

 cryst.   s( 9) = (     1         -1          1      )
                  (     0         -1          0      )
                  (     0          0         -1      )

 cart.    s( 9) = (  0.0000000  0.0000000  1.0000000 )
                  (  0.0000000 -1.0000000  0.0000000 )
                  (  1.0000000  0.0000000  0.0000000 )


      isym = 10     180 deg rotation - cart. axis [-1,0,1]       

 cryst.   s(10) = (    -1          0          0      )
                  (     0          0          1      )
                  (     0          1          0      )

 cart.    s(10) = (  0.0000000  0.0000000 -1.0000000 )
                  (  0.0000000 -1.0000000  0.0000000 )
                  ( -1.0000000  0.0000000  0.0000000 )


      isym = 11      90 deg rotation - cart. axis [0,1,0]        

 cryst.   s(11) = (     0          0         -1      )
                  (     1          0          0      )
                  (     1         -1          1      )

 cart.    s(11) = (  0.0000000  0.0000000  1.0000000 )
                  (  0.0000000  1.0000000  0.0000000 )
                  ( -1.0000000  0.0000000  0.0000000 )


      isym = 12      90 deg rotation - cart. axis [0,-1,0]       

 cryst.   s(12) = (     0          1          0      )
                  (    -1          1         -1      )
                  (    -1          0          0      )

 cart.    s(12) = (  0.0000000  0.0000000 -1.0000000 )
                  (  0.0000000  1.0000000  0.0000000 )
                  (  1.0000000  0.0000000  0.0000000 )


      isym = 13     180 deg rotation - cart. axis [0,1,1]        

 cryst.   s(13) = (     0          1          0      )
                  (     1          0          0      )
                  (     0          0         -1      )

 cart.    s(13) = ( -1.0000000  0.0000000  0.0000000 )
                  (  0.0000000  0.0000000  1.0000000 )
                  (  0.0000000  1.0000000  0.0000000 )


      isym = 14     180 deg rotation - cart. axis [0,1,-1]       

 cryst.   s(14) = (    -1          0          0      )
                  (     0         -1          0      )
                  (     1         -1          1      )

 cart.    s(14) = ( -1.0000000  0.0000000  0.0000000 )
                  (  0.0000000  0.0000000 -1.0000000 )
                  (  0.0000000 -1.0000000  0.0000000 )


      isym = 15      90 deg rotation - cart. axis [-1,0,0]       

 cryst.   s(15) = (     0          0         -1      )
                  (    -1          1         -1      )
                  (     0          1          0      )

 cart.    s(15) = (  1.0000000  0.0000000  0.0000000 )
                  (  0.0000000  0.0000000  1.0000000 )
                  (  0.0000000 -1.0000000  0.0000000 )


      isym = 16      90 deg rotation - cart. axis [1,0,0]        

 cryst.   s(16) = (     1         -1          1      )
                  (     0          0          1      )
                  (    -1          0          0      )

 cart.    s(16) = (  1.0000000  0.0000000  0.0000000 )
                  (  0.0000000  0.0000000 -1.0000000 )
                  (  0.0000000  1.0000000  0.0000000 )


      isym = 17     120 deg rotation - cart. axis [-1,-1,-1]     

 cryst.   s(17) = (     1          0          0      )
                  (     0          0         -1      )
                  (    -1          1         -1      )

 cart.    s(17) = (  0.0000000  1.0000000  0.0000000 )
                  (  0.0000000  0.0000000  1.0000000 )
                  (  1.0000000  0.0000000  0.0000000 )


      isym = 18     120 deg rotation - cart. axis [-1,1,1]       

 cryst.   s(18) = (    -1          1         -1      )
                  (     0          1          0      )
                  (     1          0          0      )

 cart.    s(18) = (  0.0000000 -1.0000000  0.0000000 )
                  (  0.0000000  0.0000000  1.0000000 )
                  ( -1.0000000  0.0000000  0.0000000 )


      isym = 19     120 deg rotation - cart. axis [1,1,-1]       

 cryst.   s(19) = (     0         -1          0      )
                  (     1         -1          1      )
                  (     0          0          1      )

 cart.    s(19) = (  0.0000000  1.0000000  0.0000000 )
                  (  0.0000000  0.0000000 -1.0000000 )
                  ( -1.0000000  0.0000000  0.0000000 )


      isym = 20     120 deg rotation - cart. axis [1,-1,1]       

 cryst.   s(20) = (     0          0          1      )
                  (    -1          0          0      )
                  (     0         -1          0      )

 cart.    s(20) = (  0.0000000 -1.0000000  0.0000000 )
                  (  0.0000000  0.0000000 -1.0000000 )
                  (  1.0000000  0.0000000  0.0000000 )


      isym = 21     120 deg rotation - cart. axis [1,1,1]        

 cryst.   s(21) = (     1          0          0      )
                  (     1         -1          1      )
                  (     0         -1          0      )

 cart.    s(21) = (  0.0000000  0.0000000  1.0000000 )
                  (  1.0000000  0.0000000  0.0000000 )
                  (  0.0000000  1.0000000  0.0000000 )


      isym = 22     120 deg rotation - cart. axis [-1,1,-1]      

 cryst.   s(22) = (     0         -1          0      )
                  (     0          0         -1      )
                  (     1          0          0      )

 cart.    s(22) = (  0.0000000  0.0000000  1.0000000 )
                  ( -1.0000000  0.0000000  0.0000000 )
                  (  0.0000000 -1.0000000  0.0000000 )


      isym = 23     120 deg rotation - cart. axis [1,-1,-1]      

 cryst.   s(23) = (     0          0          1      )
                  (     0          1          0      )
                  (    -1          1         -1      )

 cart.    s(23) = (  0.0000000  0.0000000 -1.0000000 )
                  ( -1.0000000  0.0000000  0.0000000 )
                  (  0.0000000  1.0000000  0.0000000 )


      isym = 24     120 deg rotation - cart. axis [-1,-1,1]      

 cryst.   s(24) = (    -1          1         -1      )
                  (    -1          0          0      )
                  (     0          0          1      )

 cart.    s(24) = (  0.0000000  0.0000000 -1.0000000 )
                  (  1.0000000  0.0000000  0.0000000 )
                  (  0.0000000 -1.0000000  0.0000000 )


      isym = 25     inversion                                    

 cryst.   s(25) = (    -1          0          0      )
                  (     0         -1          0      )
                  (     0          0         -1      )

 cart.    s(25) = ( -1.0000000  0.0000000  0.0000000 )
                  (  0.0000000 -1.0000000  0.0000000 )
                  (  0.0000000  0.0000000 -1.0000000 )


      isym = 26     inv. 180 deg rotation - cart. axis [0,0,1]   

 cryst.   s(26) = (     0          0         -1      )
                  (    -1          1         -1      )
                  (    -1          0          0      )

 cart.    s(26) = (  1.0000000  0.0000000  0.0000000 )
                  (  0.0000000  1.0000000  0.0000000 )
                  (  0.0000000  0.0000000 -1.0000000 )


      isym = 27     inv. 180 deg rotation - cart. axis [0,1,0]   

 cryst.   s(27) = (     1         -1          1      )
                  (     0          0          1      )
                  (     0          1          0      )

 cart.    s(27) = (  1.0000000  0.0000000  0.0000000 )
                  (  0.0000000 -1.0000000  0.0000000 )
                  (  0.0000000  0.0000000  1.0000000 )


      isym = 28     inv. 180 deg rotation - cart. axis [1,0,0]   

 cryst.   s(28) = (     0          1          0      )
                  (     1          0          0      )
                  (     1         -1          1      )

 cart.    s(28) = ( -1.0000000  0.0000000  0.0000000 )
                  (  0.0000000  1.0000000  0.0000000 )
                  (  0.0000000  0.0000000  1.0000000 )


      isym = 29     inv. 180 deg rotation - cart. axis [1,1,0]   

 cryst.   s(29) = (     0          0          1      )
                  (     0          1          0      )
                  (     1          0          0      )

 cart.    s(29) = (  0.0000000 -1.0000000  0.0000000 )
                  ( -1.0000000  0.0000000  0.0000000 )
                  (  0.0000000  0.0000000  1.0000000 )


      isym = 30     inv. 180 deg rotation - cart. axis [1,-1,0]  

 cryst.   s(30) = (     1          0          0      )
                  (     1         -1          1      )
                  (     0          0          1      )

 cart.    s(30) = (  0.0000000  1.0000000  0.0000000 )
                  (  1.0000000  0.0000000  0.0000000 )
                  (  0.0000000  0.0000000  1.0000000 )


      isym = 31     inv.  90 deg rotation - cart. axis [0,0,-1]  

 cryst.   s(31) = (    -1          1         -1      )
                  (    -1          0          0      )
                  (     0         -1          0      )

 cart.    s(31) = (  0.0000000 -1.0000000  0.0000000 )
                  (  1.0000000  0.0000000  0.0000000 )
                  (  0.0000000  0.0000000 -1.0000000 )


      isym = 32     inv.  90 deg rotation - cart. axis [0,0,1]   

 cryst.   s(32) = (     0         -1          0      )
                  (     0          0         -1      )
                  (    -1          1         -1      )

 cart.    s(32) = (  0.0000000  1.0000000  0.0000000 )
                  ( -1.0000000  0.0000000  0.0000000 )
                  (  0.0000000  0.0000000 -1.0000000 )


      isym = 33     inv. 180 deg rotation - cart. axis [1,0,1]   

 cryst.   s(33) = (    -1          1         -1      )
                  (     0          1          0      )
                  (     0          0          1      )

 cart.    s(33) = (  0.0000000  0.0000000 -1.0000000 )
                  (  0.0000000  1.0000000  0.0000000 )
                  ( -1.0000000  0.0000000  0.0000000 )


      isym = 34     inv. 180 deg rotation - cart. axis [-1,0,1]  

 cryst.   s(34) = (     1          0          0      )
                  (     0          0         -1      )
                  (     0         -1          0      )

 cart.    s(34) = (  0.0000000  0.0000000  1.0000000 )
                  (  0.0000000  1.0000000  0.0000000 )
                  (  1.0000000  0.0000000  0.0000000 )


      isym = 35     inv.  90 deg rotation - cart. axis [0,1,0]   

 cryst.   s(35) = (     0          0          1      )
                  (    -1          0          0      )
                  (    -1          1         -1      )

 cart.    s(35) = (  0.0000000  0.0000000 -1.0000000 )
                  (  0.0000000 -1.0000000  0.0000000 )
                  (  1.0000000  0.0000000  0.0000000 )


      isym = 36     inv.  90 deg rotation - cart. axis [0,-1,0]  

 cryst.   s(36) = (     0         -1          0      )
                  (     1         -1          1      )
                  (     1          0          0      )

 cart.    s(36) = (  0.0000000  0.0000000  1.0000000 )
                  (  0.0000000 -1.0000000  0.0000000 )
                  ( -1.0000000  0.0000000  0.0000000 )


      isym = 37     inv. 180 deg rotation - cart. axis [0,1,1]   

 cryst.   s(37) = (     0         -1          0      )
                  (    -1          0          0      )
                  (     0          0          1      )

 cart.    s(37) = (  1.0000000  0.0000000  0.0000000 )
                  (  0.0000000  0.0000000 -1.0000000 )
                  (  0.0000000 -1.0000000  0.0000000 )


      isym = 38     inv. 180 deg rotation - cart. axis [0,1,-1]  

 cryst.   s(38) = (     1          0          0      )
                  (     0          1          0      )
                  (    -1          1         -1      )

 cart.    s(38) = (  1.0000000  0.0000000  0.0000000 )
                  (  0.0000000  0.0000000  1.0000000 )
                  (  0.0000000  1.0000000  0.0000000 )


      isym = 39     inv.  90 deg rotation - cart. axis [-1,0,0]  

 cryst.   s(39) = (     0          0          1      )
                  (     1         -1          1      )
                  (     0         -1          0      )

 cart.    s(39) = ( -1.0000000  0.0000000  0.0000000 )
                  (  0.0000000  0.0000000 -1.0000000 )
                  (  0.0000000  1.0000000  0.0000000 )


      isym = 40     inv.  90 deg rotation - cart. axis [1,0,0]   

 cryst.   s(40) = (    -1          1         -1      )
                  (     0          0         -1      )
                  (     1          0          0      )

 cart.    s(40) = ( -1.0000000  0.0000000  0.0000000 )
                  (  0.0000000  0.0000000  1.0000000 )
                  (  0.0000000 -1.0000000  0.0000000 )


      isym = 41     inv. 120 deg rotation - cart. axis [-1,-1,-1]

 cryst.   s(41) = (    -1          0          0      )
                  (     0          0          1      )
                  (     1         -1          1      )

 cart.    s(41) = (  0.0000000 -1.0000000  0.0000000 )
                  (  0.0000000  0.0000000 -1.0000000 )
                  ( -1.0000000  0.0000000  0.0000000 )


      isym = 42     inv. 120 deg rotation - cart. axis [-1,1,1]  

 cryst.   s(42) = (     1         -1          1      )
                  (     0         -1          0      )
                  (    -1          0          0      )

 cart.    s(42) = (  0.0000000  1.0000000  0.0000000 )
                  (  0.0000000  0.0000000 -1.0000000 )
                  (  1.0000000  0.0000000  0.0000000 )


      isym = 43     inv. 120 deg rotation - cart. axis [1,1,-1]  

 cryst.   s(43) = (     0          1          0      )
                  (    -1          1         -1      )
                  (     0          0         -1      )

 cart.    s(43) = (  0.0000000 -1.0000000  0.0000000 )
                  (  0.0000000  0.0000000  1.0000000 )
                  (  1.0000000  0.0000000  0.0000000 )


      isym = 44     inv. 120 deg rotation - cart. axis [1,-1,1]  

 cryst.   s(44) = (     0          0         -1      )
                  (     1          0          0      )
                  (     0          1          0      )

 cart.    s(44) = (  0.0000000  1.0000000  0.0000000 )
                  (  0.0000000  0.0000000  1.0000000 )
                  ( -1.0000000  0.0000000  0.0000000 )


      isym = 45     inv. 120 deg rotation - cart. axis [1,1,1]   

 cryst.   s(45) = (    -1          0          0      )
                  (    -1          1         -1      )
                  (     0          1          0      )

 cart.    s(45) = (  0.0000000  0.0000000 -1.0000000 )
                  ( -1.0000000  0.0000000  0.0000000 )
                  (  0.0000000 -1.0000000  0.0000000 )


      isym = 46     inv. 120 deg rotation - cart. axis [-1,1,-1] 

 cryst.   s(46) = (     0          1          0      )
                  (     0          0          1      )
                  (    -1          0          0      )

 cart.    s(46) = (  0.0000000  0.0000000 -1.0000000 )
                  (  1.0000000  0.0000000  0.0000000 )
                  (  0.0000000  1.0000000  0.0000000 )


      isym = 47     inv. 120 deg rotation - cart. axis [1,-1,-1] 

 cryst.   s(47) = (     0          0         -1      )
                  (     0         -1          0      )
                  (     1         -1          1      )

 cart.    s(47) = (  0.0000000  0.0000000  1.0000000 )
                  (  1.0000000  0.0000000  0.0000000 )
                  (  0.0000000 -1.0000000  0.0000000 )


      isym = 48     inv. 120 deg rotation - cart. axis [-1,-1,1] 

 cryst.   s(48) = (     1         -1          1      )
                  (     1          0          0      )
                  (     0          0         -1      )

 cart.    s(48) = (  0.0000000  0.0000000  1.0000000 )
                  ( -1.0000000  0.0000000  0.0000000 )
                  (  0.0000000  1.0000000  0.0000000 )


     point group O_h (m-3m) 
     there are 10 classes
     the character table:

       E     8C3   6C2'  6C4   3C2   i     6S4   8S6   3s_h  6s_d 
A_1g   1.00  1.00  1.00  1.00  1.00  1.00  1.00  1.00  1.00  1.00
A_2g   1.00  1.00 -1.00 -1.00  1.00  1.00 -1.00  1.00  1.00 -1.00
E_g    2.00 -1.00  0.00  0.00  2.00  2.00  0.00 -1.00  2.00  0.00
T_1g   3.00  0.00 -1.00  1.00 -1.00  3.00  1.00  0.00 -1.00 -1.00
T_2g   3.00  0.00  1.00 -1.00 -1.00  3.00 -1.00  0.00 -1.00  1.00
A_1u   1.00  1.00  1.00  1.00  1.00 -1.00 -1.00 -1.00 -1.00 -1.00
A_2u   1.00  1.00 -1.00 -1.00  1.00 -1.00  1.00 -1.00 -1.00  1.00
E_u    2.00 -1.00  0.00  0.00  2.00 -2.00  0.00  1.00 -2.00  0.00
T_1u   3.00  0.00 -1.00  1.00 -1.00 -3.00 -1.00  0.00  1.00  1.00
T_2u   3.00  0.00  1.00 -1.00 -1.00 -3.00  1.00  0.00  1.00 -1.00

     the symmetry operations in each class:
     E        1
     3C2      2    4    3
     6C2'     5    6   14   13   10    9
     6C4      7    8   15   16   12   11
     8C3     17   19   20   18   24   21   22   23
     i       25
     3s_h    26   28   27
     6s_d    29   30   38   37   34   33
     6S4     31   32   39   40   36   35
     8S6     41   43   44   42   48   45   46   47

   Cartesian axes

     site n.     atom                  positions (alat units)
         1           Fe1 tau(   1) = (   0.0000000   0.0000000   0.0000000  )
         2           Fe  tau(   2) = (   0.2500000   0.2500000   0.2500000  )
         3           Fe  tau(   3) = (  -0.2500000   0.2500000   0.2500000  )
         4           Fe  tau(   4) = (  -0.2500000  -0.2500000   0.2500000  )
         5           Fe  tau(   5) = (   0.0000000   0.5000000   0.5000000  )
         6           Fe  tau(   6) = (  -0.5000000   0.0000000   0.5000000  )
         7           Fe  tau(   7) = (   0.0000000   0.0000000   0.5000000  )
         8           Fe  tau(   8) = (  -0.2500000   0.2500000   0.7500000  )

   Crystallographic axes

     site n.     atom                  positions (cryst. coord.)
         1           Fe1 tau(   1) = (  0.0000000  0.0000000  0.0000000  )
         2           Fe  tau(   2) = (  0.5000000  0.0000000  0.0000000  )
         3           Fe  tau(   3) = (  0.0000000  0.5000000  0.0000000  )
         4           Fe  tau(   4) = (  0.0000000  0.0000000  0.5000000  )
         5           Fe  tau(   5) = (  0.5000000  0.5000000  0.0000000  )
         6           Fe  tau(   6) = (  0.0000000  0.5000000  0.5000000  )
         7           Fe  tau(   7) = (  0.5000000  0.0000000  0.5000000  )
         8           Fe  tau(   8) = (  0.5000000  0.5000000  0.5000000  )

     number of k points=    16  Methfessel-Paxton smearing, width (Ry)=  0.0100
                       cart. coord. in units 2pi/alat
        k(    1) = (   0.0000000   0.0000000   0.0000000), wk =   0.0156250
        k(    2) = (   0.0000000  -0.2500000   0.2500000), wk =   0.1875000
        k(    3) = (   0.0000000   0.5000000  -0.5000000), wk =   0.0937500
        k(    4) = (  -0.2500000   0.7500000  -0.5000000), wk =   0.3750000
        k(    5) = (   0.0000000   0.0000000   0.5000000), wk =   0.0937500
        k(    6) = (   0.0000000   0.7500000  -0.2500000), wk =   0.1875000
        k(    7) = (   0.5000000  -0.5000000   0.5000000), wk =   0.0312500
        k(    8) = (   0.0000000   0.0000000  -1.0000000), wk =   0.0156250
        k(    9) = (   0.0000000   0.0000000   0.0000000), wk =   0.0156250
        k(   10) = (   0.0000000  -0.2500000   0.2500000), wk =   0.1875000
        k(   11) = (   0.0000000   0.5000000  -0.5000000), wk =   0.0937500
        k(   12) = (  -0.2500000   0.7500000  -0.5000000), wk =   0.3750000
        k(   13) = (   0.0000000   0.0000000   0.5000000), wk =   0.0937500
        k(   14) = (   0.0000000   0.7500000  -0.2500000), wk =   0.1875000
        k(   15) = (   0.5000000  -0.5000000   0.5000000), wk =   0.0312500
        k(   16) = (   0.0000000   0.0000000  -1.0000000), wk =   0.0156250

                       cryst. coord.
        k(    1) = (   0.0000000   0.0000000   0.0000000), wk =   0.0156250
        k(    2) = (   0.0000000   0.0000000   0.2500000), wk =   0.1875000
        k(    3) = (   0.0000000   0.0000000  -0.5000000), wk =   0.0937500
        k(    4) = (   0.0000000   0.2500000  -0.5000000), wk =   0.3750000
        k(    5) = (   0.2500000   0.2500000   0.2500000), wk =   0.0937500
        k(    6) = (   0.2500000   0.2500000  -0.5000000), wk =   0.1875000
        k(    7) = (   0.2500000  -0.2500000   0.2500000), wk =   0.0312500
        k(    8) = (  -0.5000000  -0.5000000  -0.5000000), wk =   0.0156250
        k(    9) = (   0.0000000   0.0000000   0.0000000), wk =   0.0156250
        k(   10) = (   0.0000000   0.0000000   0.2500000), wk =   0.1875000
        k(   11) = (   0.0000000   0.0000000  -0.5000000), wk =   0.0937500
        k(   12) = (   0.0000000   0.2500000  -0.5000000), wk =   0.3750000
        k(   13) = (   0.2500000   0.2500000   0.2500000), wk =   0.0937500
        k(   14) = (   0.2500000   0.2500000  -0.5000000), wk =   0.1875000
        k(   15) = (   0.2500000  -0.2500000   0.2500000), wk =   0.0312500
        k(   16) = (  -0.5000000  -0.5000000  -0.5000000), wk =   0.0156250

     Dense  grid:    73525 G-vectors     FFT dimensions: (  60,  60,  60)

     Smooth grid:    14171 G-vectors     FFT dimensions: (  36,  36,  36)

     Largest allocated arrays     est. size (Mb)     dimensions
        Kohn-Sham Wavefunctions         0.34 Mb     (     450,   50)
        Atomic Hubbard wavefuncts       0.27 Mb     (     450,   40)
        NL pseudopotentials             0.99 Mb     (     450,  144)
        Each V/rho on FFT grid          1.65 Mb     (   54000,   2)
        Each G-vector array             0.14 Mb     (   18382)
        G-vector shells                 0.00 Mb     (     490)
     Largest temporary arrays     est. size (Mb)     dimensions
        Auxiliary wavefunctions         1.37 Mb     (     450,  200)
        Each subspace H/S matrix        0.61 Mb     (     200,  200)
        Each <psi_i|beta_j> matrix      0.11 Mb     (     144,   50)
        Arrays for rho mixing           6.59 Mb     (   54000,    8)

     Initial potential from superposition of free atoms

     starting charge   63.99493, renormalised to   64.00000
 --- in v_hubbard ---
Hubbard energy    0.0000
 -------
     Number of +U iterations with fixed ns =  0
     Starting occupations:
 --- enter write_ns ---
 LDA+U parameters:
U( 1)     =  0.00000000
alpha( 1) =  0.00000000
U( 2)     =  0.00000000
alpha( 2) =  0.00000000
atom    1   Tr[ns(na)] (up, down, total) =   5.00000  1.00000  6.00000
   spin  1
    eigenvalues: 
  1.000  1.000  1.000  1.000  1.000
    eigenvectors:
  1.000  0.000  0.000  0.000  0.000
  0.000  1.000  0.000  0.000  0.000
  0.000  0.000  1.000  0.000  0.000
  0.000  0.000  0.000  1.000  0.000
  0.000  0.000  0.000  0.000  1.000
    occupations:
  1.000  0.000  0.000  0.000  0.000
  0.000  1.000  0.000  0.000  0.000
  0.000  0.000  1.000  0.000  0.000
  0.000  0.000  0.000  1.000  0.000
  0.000  0.000  0.000  0.000  1.000
   spin  2
    eigenvalues: 
  0.200  0.200  0.200  0.200  0.200
    eigenvectors:
  1.000  0.000  0.000  0.000  0.000
  0.000  1.000  0.000  0.000  0.000
  0.000  0.000  1.000  0.000  0.000
  0.000  0.000  0.000  1.000  0.000
  0.000  0.000  0.000  0.000  1.000
    occupations:
  0.200  0.000  0.000  0.000  0.000
  0.000  0.200  0.000  0.000  0.000
  0.000  0.000  0.200  0.000  0.000
  0.000  0.000  0.000  0.200  0.000
  0.000  0.000  0.000  0.000  0.200
atomic mag. moment =     4.000000
atom    2   Tr[ns(na)] (up, down, total) =   5.00000  1.00000  6.00000
   spin  1
    eigenvalues: 
  1.000  1.000  1.000  1.000  1.000
    eigenvectors:
  1.000  0.000  0.000  0.000  0.000
  0.000  1.000  0.000  0.000  0.000
  0.000  0.000  1.000  0.000  0.000
  0.000  0.000  0.000  1.000  0.000
  0.000  0.000  0.000  0.000  1.000
    occupations:
  1.000  0.000  0.000  0.000  0.000
  0.000  1.000  0.000  0.000  0.000
  0.000  0.000  1.000  0.000  0.000
  0.000  0.000  0.000  1.000  0.000
  0.000  0.000  0.000  0.000  1.000
   spin  2
    eigenvalues: 
  0.200  0.200  0.200  0.200  0.200
    eigenvectors:
  1.000  0.000  0.000  0.000  0.000
  0.000  1.000  0.000  0.000  0.000
  0.000  0.000  1.000  0.000  0.000
  0.000  0.000  0.000  1.000  0.000
  0.000  0.000  0.000  0.000  1.000
    occupations:
  0.200  0.000  0.000  0.000  0.000
  0.000  0.200  0.000  0.000  0.000
  0.000  0.000  0.200  0.000  0.000
  0.000  0.000  0.000  0.200  0.000
  0.000  0.000  0.000  0.000  0.200
atomic mag. moment =     4.000000
atom    3   Tr[ns(na)] (up, down, total) =   5.00000  1.00000  6.00000
   spin  1
    eigenvalues: 
  1.000  1.000  1.000  1.000  1.000
    eigenvectors:
  1.000  0.000  0.000  0.000  0.000
  0.000  1.000  0.000  0.000  0.000
  0.000  0.000  1.000  0.000  0.000
  0.000  0.000  0.000  1.000  0.000
  0.000  0.000  0.000  0.000  1.000
    occupations:
  1.000  0.000  0.000  0.000  0.000
  0.000  1.000  0.000  0.000  0.000
  0.000  0.000  1.000  0.000  0.000
  0.000  0.000  0.000  1.000  0.000
  0.000  0.000  0.000  0.000  1.000
   spin  2
    eigenvalues: 
  0.200  0.200  0.200  0.200  0.200
    eigenvectors:
  1.000  0.000  0.000  0.000  0.000
  0.000  1.000  0.000  0.000  0.000
  0.000  0.000  1.000  0.000  0.000
  0.000  0.000  0.000  1.000  0.000
  0.000  0.000  0.000  0.000  1.000
    occupations:
  0.200  0.000  0.000  0.000  0.000
  0.000  0.200  0.000  0.000  0.000
  0.000  0.000  0.200  0.000  0.000
  0.000  0.000  0.000  0.200  0.000
  0.000  0.000  0.000  0.000  0.200
atomic mag. moment =     4.000000
atom    4   Tr[ns(na)] (up, down, total) =   5.00000  1.00000  6.00000
   spin  1
    eigenvalues: 
  1.000  1.000  1.000  1.000  1.000
    eigenvectors:
  1.000  0.000  0.000  0.000  0.000
  0.000  1.000  0.000  0.000  0.000
  0.000  0.000  1.000  0.000  0.000
  0.000  0.000  0.000  1.000  0.000
  0.000  0.000  0.000  0.000  1.000
    occupations:
  1.000  0.000  0.000  0.000  0.000
  0.000  1.000  0.000  0.000  0.000
  0.000  0.000  1.000  0.000  0.000
  0.000  0.000  0.000  1.000  0.000
  0.000  0.000  0.000  0.000  1.000
   spin  2
    eigenvalues: 
  0.200  0.200  0.200  0.200  0.200
    eigenvectors:
  1.000  0.000  0.000  0.000  0.000
  0.000  1.000  0.000  0.000  0.000
  0.000  0.000  1.000  0.000  0.000
  0.000  0.000  0.000  1.000  0.000
  0.000  0.000  0.000  0.000  1.000
    occupations:
  0.200  0.000  0.000  0.000  0.000
  0.000  0.200  0.000  0.000  0.000
  0.000  0.000  0.200  0.000  0.000
  0.000  0.000  0.000  0.200  0.000
  0.000  0.000  0.000  0.000  0.200
atomic mag. moment =     4.000000
atom    5   Tr[ns(na)] (up, down, total) =   5.00000  1.00000  6.00000
   spin  1
    eigenvalues: 
  1.000  1.000  1.000  1.000  1.000
    eigenvectors:
  1.000  0.000  0.000  0.000  0.000
  0.000  1.000  0.000  0.000  0.000
  0.000  0.000  1.000  0.000  0.000
  0.000  0.000  0.000  1.000  0.000
  0.000  0.000  0.000  0.000  1.000
    occupations:
  1.000  0.000  0.000  0.000  0.000
  0.000  1.000  0.000  0.000  0.000
  0.000  0.000  1.000  0.000  0.000
  0.000  0.000  0.000  1.000  0.000
  0.000  0.000  0.000  0.000  1.000
   spin  2
    eigenvalues: 
  0.200  0.200  0.200  0.200  0.200
    eigenvectors:
  1.000  0.000  0.000  0.000  0.000
  0.000  1.000  0.000  0.000  0.000
  0.000  0.000  1.000  0.000  0.000
  0.000  0.000  0.000  1.000  0.000
  0.000  0.000  0.000  0.000  1.000
    occupations:
  0.200  0.000  0.000  0.000  0.000
  0.000  0.200  0.000  0.000  0.000
  0.000  0.000  0.200  0.000  0.000
  0.000  0.000  0.000  0.200  0.000
  0.000  0.000  0.000  0.000  0.200
atomic mag. moment =     4.000000
atom    6   Tr[ns(na)] (up, down, total) =   5.00000  1.00000  6.00000
   spin  1
    eigenvalues: 
  1.000  1.000  1.000  1.000  1.000
    eigenvectors:
  1.000  0.000  0.000  0.000  0.000
  0.000  1.000  0.000  0.000  0.000
  0.000  0.000  1.000  0.000  0.000
  0.000  0.000  0.000  1.000  0.000
  0.000  0.000  0.000  0.000  1.000
    occupations:
  1.000  0.000  0.000  0.000  0.000
  0.000  1.000  0.000  0.000  0.000
  0.000  0.000  1.000  0.000  0.000
  0.000  0.000  0.000  1.000  0.000
  0.000  0.000  0.000  0.000  1.000
   spin  2
    eigenvalues: 
  0.200  0.200  0.200  0.200  0.200
    eigenvectors:
  1.000  0.000  0.000  0.000  0.000
  0.000  1.000  0.000  0.000  0.000
  0.000  0.000  1.000  0.000  0.000
  0.000  0.000  0.000  1.000  0.000
  0.000  0.000  0.000  0.000  1.000
    occupations:
  0.200  0.000  0.000  0.000  0.000
  0.000  0.200  0.000  0.000  0.000
  0.000  0.000  0.200  0.000  0.000
  0.000  0.000  0.000  0.200  0.000
  0.000  0.000  0.000  0.000  0.200
atomic mag. moment =     4.000000
atom    7   Tr[ns(na)] (up, down, total) =   5.00000  1.00000  6.00000
   spin  1
    eigenvalues: 
  1.000  1.000  1.000  1.000  1.000
    eigenvectors:
  1.000  0.000  0.000  0.000  0.000
  0.000  1.000  0.000  0.000  0.000
  0.000  0.000  1.000  0.000  0.000
  0.000  0.000  0.000  1.000  0.000
  0.000  0.000  0.000  0.000  1.000
    occupations:
  1.000  0.000  0.000  0.000  0.000
  0.000  1.000  0.000  0.000  0.000
  0.000  0.000  1.000  0.000  0.000
  0.000  0.000  0.000  1.000  0.000
  0.000  0.000  0.000  0.000  1.000
   spin  2
    eigenvalues: 
  0.200  0.200  0.200  0.200  0.200
    eigenvectors:
  1.000  0.000  0.000  0.000  0.000
  0.000  1.000  0.000  0.000  0.000
  0.000  0.000  1.000  0.000  0.000
  0.000  0.000  0.000  1.000  0.000
  0.000  0.000  0.000  0.000  1.000
    occupations:
  0.200  0.000  0.000  0.000  0.000
  0.000  0.200  0.000  0.000  0.000
  0.000  0.000  0.200  0.000  0.000
  0.000  0.000  0.000  0.200  0.000
  0.000  0.000  0.000  0.000  0.200
atomic mag. moment =     4.000000
atom    8   Tr[ns(na)] (up, down, total) =   5.00000  1.00000  6.00000
   spin  1
    eigenvalues: 
  1.000  1.000  1.000  1.000  1.000
    eigenvectors:
  1.000  0.000  0.000  0.000  0.000
  0.000  1.000  0.000  0.000  0.000
  0.000  0.000  1.000  0.000  0.000
  0.000  0.000  0.000  1.000  0.000
  0.000  0.000  0.000  0.000  1.000
    occupations:
  1.000  0.000  0.000  0.000  0.000
  0.000  1.000  0.000  0.000  0.000
  0.000  0.000  1.000  0.000  0.000
  0.000  0.000  0.000  1.000  0.000
  0.000  0.000  0.000  0.000  1.000
   spin  2
    eigenvalues: 
  0.200  0.200  0.200  0.200  0.200
    eigenvectors:
  1.000  0.000  0.000  0.000  0.000
  0.000  1.000  0.000  0.000  0.000
  0.000  0.000  1.000  0.000  0.000
  0.000  0.000  0.000  1.000  0.000
  0.000  0.000  0.000  0.000  1.000
    occupations:
  0.200  0.000  0.000  0.000  0.000
  0.000  0.200  0.000  0.000  0.000
  0.000  0.000  0.200  0.000  0.000
  0.000  0.000  0.000  0.200  0.000
  0.000  0.000  0.000  0.000  0.200
atomic mag. moment =     4.000000
N of occupied +U levels =   48.000000
 --- exit write_ns ---
 Atomic wfc used for LDA+U Projector are NOT orthogonalized
     Starting wfc are   48 randomized atomic wfcs +    2 random wfc

     total cpu time spent up to now is        3.0 secs

     per-process dynamical memory:    31.5 Mb

     Self-consistent Calculation

     iteration #  1     ecut=    30.00 Ry     beta=0.30
     Davidson diagonalization with overlap
     ethr =  1.00E-02,  avg # of iterations =  4.5
 --- enter write_ns ---
 LDA+U parameters:
U( 1)     =  0.00000000
alpha( 1) =  0.00000000
U( 2)     =  0.00000000
alpha( 2) =  0.00000000
atom    1   Tr[ns(na)] (up, down, total) =   4.82310  2.37652  7.19963
   spin  1
    eigenvalues: 
  0.955  0.955  0.955  0.979  0.979
    eigenvectors:
  0.000  0.000  0.000  0.643  0.357
  0.069  0.342  0.589  0.000  0.000
  0.347  0.284  0.369  0.000  0.000
  0.000  0.000  0.000  0.357  0.643
  0.584  0.374  0.042  0.000  0.000
    occupations:
  0.979  0.000  0.000  0.000  0.000
  0.000  0.955  0.000  0.000  0.000
  0.000  0.000  0.955  0.000  0.000
  0.000  0.000  0.000  0.979  0.000
  0.000  0.000  0.000  0.000  0.955
   spin  2
    eigenvalues: 
  0.440  0.440  0.499  0.499  0.499
    eigenvectors:
  0.612  0.388  0.000  0.000  0.000
  0.000  0.000  0.069  0.409  0.521
  0.000  0.000  0.343  0.239  0.418
  0.388  0.612  0.000  0.000  0.000
  0.000  0.000  0.588  0.352  0.061
    occupations:
  0.440  0.000  0.000  0.000  0.000
  0.000  0.499  0.000  0.000  0.000
  0.000  0.000  0.499  0.000  0.000
  0.000  0.000  0.000  0.440  0.000
  0.000  0.000  0.000  0.000  0.499
atomic mag. moment =     2.446582
atom    2   Tr[ns(na)] (up, down, total) =   4.82310  2.37653  7.19963
   spin  1
    eigenvalues: 
  0.955  0.955  0.955  0.979  0.979
    eigenvectors:
  0.000  0.000  0.000  0.711  0.289
  0.333  0.433  0.234  0.000  0.000
  0.333  0.008  0.659  0.000  0.000
  0.000  0.000  0.000  0.289  0.711
  0.333  0.559  0.107  0.000  0.000
    occupations:
  0.979  0.000  0.000  0.000  0.000
  0.000  0.955  0.000  0.000  0.000
  0.000  0.000  0.955  0.000  0.000
  0.000  0.000  0.000  0.979  0.000
  0.000  0.000  0.000  0.000  0.955
   spin  2
    eigenvalues: 
  0.440  0.440  0.499  0.499  0.499
    eigenvectors:
  0.703  0.297  0.000  0.000  0.000
  0.000  0.000  0.454  0.213  0.333
  0.000  0.000  0.004  0.663  0.333
  0.297  0.703  0.000  0.000  0.000
  0.000  0.000  0.542  0.124  0.333
    occupations:
  0.440  0.000  0.000  0.000  0.000
  0.000  0.499  0.000  0.000  0.000
  0.000  0.000  0.499  0.000  0.000
  0.000  0.000  0.000  0.440  0.000
  0.000  0.000  0.000  0.000  0.499
atomic mag. moment =     2.446564
atom    3   Tr[ns(na)] (up, down, total) =   4.82310  2.37653  7.19963
   spin  1
    eigenvalues: 
  0.955  0.955  0.955  0.979  0.979
    eigenvectors:
  0.000  0.000  0.000  0.604  0.396
  0.333  0.022  0.645  0.000  0.000
  0.333  0.592  0.074  0.000  0.000
  0.000  0.000  0.000  0.396  0.604
  0.333  0.386  0.281  0.000  0.000
    occupations:
  0.979  0.000  0.000  0.000  0.000
  0.000  0.955  0.000  0.000  0.000
  0.000  0.000  0.955  0.000  0.000
  0.000  0.000  0.000  0.979  0.000
  0.000  0.000  0.000  0.000  0.955
   spin  2
    eigenvalues: 
  0.440  0.440  0.499  0.499  0.499
    eigenvectors:
  0.527  0.473  0.000  0.000  0.000
  0.000  0.000  0.018  0.648  0.333
  0.000  0.000  0.585  0.081  0.333
  0.473  0.527  0.000  0.000  0.000
  0.000  0.000  0.396  0.270  0.333
    occupations:
  0.440  0.000  0.000  0.000  0.000
  0.000  0.499  0.000  0.000  0.000
  0.000  0.000  0.499  0.000  0.000
  0.000  0.000  0.000  0.440  0.000
  0.000  0.000  0.000  0.000  0.499
atomic mag. moment =     2.446564
atom    4   Tr[ns(na)] (up, down, total) =   4.82310  2.37653  7.19963
   spin  1
    eigenvalues: 
  0.955  0.955  0.955  0.979  0.979
    eigenvectors:
  0.000  0.000  0.000  0.634  0.366
  0.333  0.056  0.610  0.000  0.000
  0.333  0.311  0.356  0.000  0.000
  0.000  0.000  0.000  0.366  0.634
  0.333  0.633  0.034  0.000  0.000
    occupations:
  0.979  0.000  0.000  0.000  0.000
  0.000  0.955  0.000  0.000  0.000
  0.000  0.000  0.955  0.000  0.000
  0.000  0.000  0.000  0.979  0.000
  0.000  0.000  0.000  0.000  0.955
   spin  2
    eigenvalues: 
  0.440  0.440  0.499  0.499  0.499
    eigenvectors:
  0.580  0.420  0.000  0.000  0.000
  0.000  0.000  0.057  0.609  0.333
  0.000  0.000  0.309  0.357  0.333
  0.420  0.580  0.000  0.000  0.000
  0.000  0.000  0.633  0.033  0.333
    occupations:
  0.440  0.000  0.000  0.000  0.000
  0.000  0.499  0.000  0.000  0.000
  0.000  0.000  0.499  0.000  0.000
  0.000  0.000  0.000  0.440  0.000
  0.000  0.000  0.000  0.000  0.499
atomic mag. moment =     2.446564
atom    5   Tr[ns(na)] (up, down, total) =   4.82311  2.37654  7.19965
   spin  1
    eigenvalues: 
  0.955  0.955  0.955  0.979  0.979
    eigenvectors:
  0.000  0.000  0.000  0.750  0.250
  0.000  0.062  0.938  0.000  0.000
  1.000  0.000  0.000  0.000  0.000
  0.000  0.000  0.000  0.250  0.750
  0.000  0.938  0.062  0.000  0.000
    occupations:
  0.979  0.000  0.000  0.000  0.000
  0.000  0.955  0.000  0.000  0.000
  0.000  0.000  0.955  0.000  0.000
  0.000  0.000  0.000  0.979  0.000
  0.000  0.000  0.000  0.000  0.955
   spin  2
    eigenvalues: 
  0.440  0.440  0.499  0.499  0.499
    eigenvectors:
  0.750  0.250  0.000  0.000  0.000
  0.000  0.000  0.058  0.942  0.000
  0.000  0.000  0.000  0.000  1.000
  0.250  0.750  0.000  0.000  0.000
  0.000  0.000  0.942  0.058  0.000
    occupations:
  0.440  0.000  0.000  0.000  0.000
  0.000  0.499  0.000  0.000  0.000
  0.000  0.000  0.499  0.000  0.000
  0.000  0.000  0.000  0.440  0.000
  0.000  0.000  0.000  0.000  0.499
atomic mag. moment =     2.446567
atom    6   Tr[ns(na)] (up, down, total) =   4.82311  2.37654  7.19965
   spin  1
    eigenvalues: 
  0.955  0.955  0.955  0.979  0.979
    eigenvectors:
  0.000  0.000  0.000  0.750  0.250
  1.000  0.000  0.000  0.000  0.000
  0.000  0.346  0.654  0.000  0.000
  0.000  0.000  0.000  0.250  0.750
  0.000  0.654  0.346  0.000  0.000
    occupations:
  0.979  0.000  0.000  0.000  0.000
  0.000  0.955  0.000  0.000  0.000
  0.000  0.000  0.955  0.000  0.000
  0.000  0.000  0.000  0.979  0.000
  0.000  0.000  0.000  0.000  0.955
   spin  2
    eigenvalues: 
  0.440  0.440  0.499  0.499  0.499
    eigenvectors:
  0.750  0.250  0.000  0.000  0.000
  0.000  0.000  0.000  0.000  1.000
  0.000  0.000  0.343  0.657  0.000
  0.250  0.750  0.000  0.000  0.000
  0.000  0.000  0.657  0.343  0.000
    occupations:
  0.440  0.000  0.000  0.000  0.000
  0.000  0.499  0.000  0.000  0.000
  0.000  0.000  0.499  0.000  0.000
  0.000  0.000  0.000  0.440  0.000
  0.000  0.000  0.000  0.000  0.499
atomic mag. moment =     2.446567
atom    7   Tr[ns(na)] (up, down, total) =   4.82311  2.37654  7.19965
   spin  1
    eigenvalues: 
  0.955  0.955  0.955  0.979  0.979
    eigenvectors:
  0.000  0.000  0.000  0.000  1.000
  0.000  0.236  0.764  0.000  0.000
  0.000  0.764  0.236  0.000  0.000
  0.000  0.000  0.000  1.000  0.000
  1.000  0.000  0.000  0.000  0.000
    occupations:
  0.979  0.000  0.000  0.000  0.000
  0.000  0.955  0.000  0.000  0.000
  0.000  0.000  0.955  0.000  0.000
  0.000  0.000  0.000  0.979  0.000
  0.000  0.000  0.000  0.000  0.955
   spin  2
    eigenvalues: 
  0.440  0.440  0.499  0.499  0.499
    eigenvectors:
  0.000  1.000  0.000  0.000  0.000
  0.000  0.000  0.237  0.763  0.000
  0.000  0.000  0.763  0.237  0.000
  1.000  0.000  0.000  0.000  0.000
  0.000  0.000  0.000  0.000  1.000
    occupations:
  0.440  0.000  0.000  0.000  0.000
  0.000  0.499  0.000  0.000  0.000
  0.000  0.000  0.499  0.000  0.000
  0.000  0.000  0.000  0.440  0.000
  0.000  0.000  0.000  0.000  0.499
atomic mag. moment =     2.446567
atom    8   Tr[ns(na)] (up, down, total) =   4.82310  2.37653  7.19963
   spin  1
    eigenvalues: 
  0.955  0.955  0.955  0.979  0.979
    eigenvectors:
  0.000  0.000  0.000  0.603  0.397
  0.333  0.657  0.010  0.000  0.000
  0.333  0.103  0.564  0.000  0.000
  0.000  0.000  0.000  0.397  0.603
  0.333  0.240  0.427  0.000  0.000
    occupations:
  0.979  0.000  0.000  0.000  0.000
  0.000  0.955  0.000  0.000  0.000
  0.000  0.000  0.955  0.000  0.000
  0.000  0.000  0.000  0.979  0.000
  0.000  0.000  0.000  0.000  0.955
   spin  2
    eigenvalues: 
  0.440  0.440  0.499  0.499  0.499
    eigenvectors:
  0.583  0.417  0.000  0.000  0.000
  0.000  0.000  0.660  0.007  0.333
  0.000  0.000  0.113  0.554  0.333
  0.417  0.583  0.000  0.000  0.000
  0.000  0.000  0.227  0.440  0.333
    occupations:
  0.440  0.000  0.000  0.000  0.000
  0.000  0.499  0.000  0.000  0.000
  0.000  0.000  0.499  0.000  0.000
  0.000  0.000  0.000  0.440  0.000
  0.000  0.000  0.000  0.000  0.499
atomic mag. moment =     2.446564
N of occupied +U levels =   57.597085
 --- exit write_ns ---
 --- in v_hubbard ---
Hubbard energy    0.0000
 -------
 
     Magnetic moment per site:
     atom:    1    charge:    6.5720    magn:    3.6357    constr:    0.0000
     atom:    2    charge:    6.5718    magn:    3.6355    constr:    0.0000
     atom:    3    charge:    6.5718    magn:    3.6355    constr:    0.0000
     atom:    4    charge:    6.5718    magn:    3.6355    constr:    0.0000
     atom:    5    charge:    6.5718    magn:    3.6355    constr:    0.0000
     atom:    6    charge:    6.5718    magn:    3.6355    constr:    0.0000
     atom:    7    charge:    6.5718    magn:    3.6355    constr:    0.0000
     atom:    8    charge:    6.5718    magn:    3.6355    constr:    0.0000

     total cpu time spent up to now is        8.8 secs

     total energy              =    -445.77661067 Ry
     Harris-Foulkes estimate   =    -446.39870715 Ry
     estimated scf accuracy    <       2.62747982 Ry

     total magnetization       =    22.37 Bohr mag/cell
     absolute magnetization    =    22.37 Bohr mag/cell

     iteration #  2     ecut=    30.00 Ry     beta=0.30
     Davidson diagonalization with overlap
     ethr =  4.11E-03,  avg # of iterations =  1.7
 --- enter write_ns ---
 LDA+U parameters:
U( 1)     =  0.00000000
alpha( 1) =  0.00000000
U( 2)     =  0.00000000
alpha( 2) =  0.00000000
atom    1   Tr[ns(na)] (up, down, total) =   4.92338  2.50307  7.42644
   spin  1
    eigenvalues: 
  0.979  0.979  0.979  0.992  0.992
    eigenvectors:
  0.000  0.000  0.000  0.629  0.371
  0.073  0.428  0.499  0.000  0.000
  0.357  0.213  0.430  0.000  0.000
  0.000  0.000  0.000  0.371  0.629
  0.570  0.359  0.071  0.000  0.000
    occupations:
  0.992  0.000  0.000  0.000  0.000
  0.000  0.979  0.000  0.000  0.000
  0.000  0.000  0.979  0.000  0.000
  0.000  0.000  0.000  0.992  0.000
  0.000  0.000  0.000  0.000  0.979
   spin  2
    eigenvalues: 
  0.453  0.453  0.532  0.532  0.532
    eigenvectors:
  0.615  0.385  0.000  0.000  0.000
  0.000  0.000  0.071  0.384  0.546
  0.000  0.000  0.348  0.251  0.401
  0.385  0.615  0.000  0.000  0.000
  0.000  0.000  0.581  0.365  0.054
    occupations:
  0.453  0.000  0.000  0.000  0.000
  0.000  0.532  0.000  0.000  0.000
  0.000  0.000  0.532  0.000  0.000
  0.000  0.000  0.000  0.453  0.000
  0.000  0.000  0.000  0.000  0.532
atomic mag. moment =     2.420308
atom    2   Tr[ns(na)] (up, down, total) =   4.92363  2.50666  7.43029
   spin  1
    eigenvalues: 
  0.980  0.980  0.980  0.992  0.992
    eigenvectors:
  0.000  0.000  0.000  0.539  0.461
  0.389  0.278  0.333  0.000  0.000
  0.021  0.646  0.333  0.000  0.000
  0.000  0.000  0.000  0.461  0.539
  0.590  0.076  0.333  0.000  0.000
    occupations:
  0.992  0.000  0.000  0.000  0.000
  0.000  0.980  0.000  0.000  0.000
  0.000  0.000  0.980  0.000  0.000
  0.000  0.000  0.000  0.992  0.000
  0.000  0.000  0.000  0.000  0.980
   spin  2
    eigenvalues: 
  0.454  0.454  0.533  0.533  0.533
    eigenvectors:
  0.467  0.533  0.000  0.000  0.000
  0.000  0.000  0.333  0.477  0.190
  0.000  0.000  0.333  0.001  0.666
  0.533  0.467  0.000  0.000  0.000
  0.000  0.000  0.333  0.522  0.144
    occupations:
  0.454  0.000  0.000  0.000  0.000
  0.000  0.533  0.000  0.000  0.000
  0.000  0.000  0.533  0.000  0.000
  0.000  0.000  0.000  0.454  0.000
  0.000  0.000  0.000  0.000  0.533
atomic mag. moment =     2.416972
atom    3   Tr[ns(na)] (up, down, total) =   4.92363  2.50666  7.43029
   spin  1
    eigenvalues: 
  0.980  0.980  0.980  0.992  0.992
    eigenvectors:
  0.000  0.000  0.000  0.500  0.500
  0.013  0.654  0.333  0.000  0.000
  0.572  0.095  0.333  0.000  0.000
  0.000  0.000  0.000  0.500  0.500
  0.415  0.251  0.333  0.000  0.000
    occupations:
  0.992  0.000  0.000  0.000  0.000
  0.000  0.980  0.000  0.000  0.000
  0.000  0.000  0.980  0.000  0.000
  0.000  0.000  0.000  0.992  0.000
  0.000  0.000  0.000  0.000  0.980
   spin  2
    eigenvalues: 
  0.454  0.454  0.533  0.533  0.533
    eigenvectors:
  0.470  0.530  0.000  0.000  0.000
  0.000  0.000  0.333  0.011  0.656
  0.000  0.000  0.333  0.568  0.099
  0.530  0.470  0.000  0.000  0.000
  0.000  0.000  0.333  0.421  0.245
    occupations:
  0.454  0.000  0.000  0.000  0.000
  0.000  0.533  0.000  0.000  0.000
  0.000  0.000  0.533  0.000  0.000
  0.000  0.000  0.000  0.454  0.000
  0.000  0.000  0.000  0.000  0.533
atomic mag. moment =     2.416972
atom    4   Tr[ns(na)] (up, down, total) =   4.92363  2.50666  7.43029
   spin  1
    eigenvalues: 
  0.980  0.980  0.980  0.992  0.992
    eigenvectors:
  0.000  0.000  0.000  0.526  0.474
  0.055  0.612  0.333  0.000  0.000
  0.314  0.353  0.333  0.000  0.000
  0.000  0.000  0.000  0.474  0.526
  0.631  0.035  0.333  0.000  0.000
    occupations:
  0.992  0.000  0.000  0.000  0.000
  0.000  0.980  0.000  0.000  0.000
  0.000  0.000  0.980  0.000  0.000
  0.000  0.000  0.000  0.992  0.000
  0.000  0.000  0.000  0.000  0.980
   spin  2
    eigenvalues: 
  0.454  0.454  0.533  0.533  0.533
    eigenvectors:
  0.555  0.445  0.000  0.000  0.000
  0.000  0.000  0.333  0.059  0.608
  0.000  0.000  0.333  0.306  0.360
  0.445  0.555  0.000  0.000  0.000
  0.000  0.000  0.333  0.635  0.032
    occupations:
  0.454  0.000  0.000  0.000  0.000
  0.000  0.533  0.000  0.000  0.000
  0.000  0.000  0.533  0.000  0.000
  0.000  0.000  0.000  0.454  0.000
  0.000  0.000  0.000  0.000  0.533
atomic mag. moment =     2.416972
atom    5   Tr[ns(na)] (up, down, total) =   4.92361  2.50754  7.43115
   spin  1
    eigenvalues: 
  0.980  0.980  0.980  0.992  0.992
    eigenvectors:
  0.000  0.000  0.000  0.750  0.250
  0.071  0.929  0.000  0.000  0.000
  0.000  0.000  1.000  0.000  0.000
  0.000  0.000  0.000  0.250  0.750
  0.929  0.071  0.000  0.000  0.000
    occupations:
  0.992  0.000  0.000  0.000  0.000
  0.000  0.980  0.000  0.000  0.000
  0.000  0.000  0.980  0.000  0.000
  0.000  0.000  0.000  0.992  0.000
  0.000  0.000  0.000  0.000  0.980
   spin  2
    eigenvalues: 
  0.454  0.454  0.533  0.533  0.533
    eigenvectors:
  0.750  0.250  0.000  0.000  0.000
  0.000  0.000  0.067  0.933  0.000
  0.000  0.000  0.000  0.000  1.000
  0.250  0.750  0.000  0.000  0.000
  0.000  0.000  0.933  0.067  0.000
    occupations:
  0.454  0.000  0.000  0.000  0.000
  0.000  0.533  0.000  0.000  0.000
  0.000  0.000  0.533  0.000  0.000
  0.000  0.000  0.000  0.454  0.000
  0.000  0.000  0.000  0.000  0.533
atomic mag. moment =     2.416075
atom    6   Tr[ns(na)] (up, down, total) =   4.92361  2.50754  7.43115
   spin  1
    eigenvalues: 
  0.980  0.980  0.980  0.992  0.992
    eigenvectors:
  0.000  0.000  0.000  0.750  0.250
  0.000  0.000  1.000  0.000  0.000
  0.355  0.645  0.000  0.000  0.000
  0.000  0.000  0.000  0.250  0.750
  0.645  0.355  0.000  0.000  0.000
    occupations:
  0.992  0.000  0.000  0.000  0.000
  0.000  0.980  0.000  0.000  0.000
  0.000  0.000  0.980  0.000  0.000
  0.000  0.000  0.000  0.992  0.000
  0.000  0.000  0.000  0.000  0.980
   spin  2
    eigenvalues: 
  0.454  0.454  0.533  0.533  0.533
    eigenvectors:
  0.750  0.250  0.000  0.000  0.000
  0.000  0.000  0.000  0.000  1.000
  0.000  0.000  0.346  0.654  0.000
  0.250  0.750  0.000  0.000  0.000
  0.000  0.000  0.654  0.346  0.000
    occupations:
  0.454  0.000  0.000  0.000  0.000
  0.000  0.533  0.000  0.000  0.000
  0.000  0.000  0.533  0.000  0.000
  0.000  0.000  0.000  0.454  0.000
  0.000  0.000  0.000  0.000  0.533
atomic mag. moment =     2.416075
atom    7   Tr[ns(na)] (up, down, total) =   4.92361  2.50754  7.43115
   spin  1
    eigenvalues: 
  0.980  0.980  0.980  0.992  0.992
    eigenvectors:
  0.000  0.000  0.000  0.000  1.000
  0.241  0.759  0.000  0.000  0.000
  0.759  0.241  0.000  0.000  0.000
  0.000  0.000  0.000  1.000  0.000
  0.000  0.000  1.000  0.000  0.000
    occupations:
  0.992  0.000  0.000  0.000  0.000
  0.000  0.980  0.000  0.000  0.000
  0.000  0.000  0.980  0.000  0.000
  0.000  0.000  0.000  0.992  0.000
  0.000  0.000  0.000  0.000  0.980
   spin  2
    eigenvalues: 
  0.454  0.454  0.533  0.533  0.533
    eigenvectors:
  0.000  1.000  0.000  0.000  0.000
  0.000  0.000  0.263  0.737  0.000
  0.000  0.000  0.737  0.263  0.000
  1.000  0.000  0.000  0.000  0.000
  0.000  0.000  0.000  0.000  1.000
    occupations:
  0.454  0.000  0.000  0.000  0.000
  0.000  0.533  0.000  0.000  0.000
  0.000  0.000  0.533  0.000  0.000
  0.000  0.000  0.000  0.454  0.000
  0.000  0.000  0.000  0.000  0.533
atomic mag. moment =     2.416075
atom    8   Tr[ns(na)] (up, down, total) =   4.92363  2.50666  7.43029
   spin  1
    eigenvalues: 
  0.980  0.980  0.980  0.992  0.992
    eigenvectors:
  0.000  0.000  0.000  0.566  0.434
  0.664  0.003  0.333  0.000  0.000
  0.132  0.535  0.333  0.000  0.000
  0.000  0.000  0.000  0.434  0.566
  0.204  0.463  0.333  0.000  0.000
    occupations:
  0.992  0.000  0.000  0.000  0.000
  0.000  0.980  0.000  0.000  0.000
  0.000  0.000  0.980  0.000  0.000
  0.000  0.000  0.000  0.992  0.000
  0.000  0.000  0.000  0.000  0.980
   spin  2
    eigenvalues: 
  0.454  0.454  0.533  0.533  0.533
    eigenvectors:
  0.609  0.391  0.000  0.000  0.000
  0.000  0.000  0.333  0.660  0.007
  0.000  0.000  0.333  0.112  0.554
  0.391  0.609  0.000  0.000  0.000
  0.000  0.000  0.333  0.228  0.439
    occupations:
  0.454  0.000  0.000  0.000  0.000
  0.000  0.533  0.000  0.000  0.000
  0.000  0.000  0.533  0.000  0.000
  0.000  0.000  0.000  0.454  0.000
  0.000  0.000  0.000  0.000  0.533
atomic mag. moment =     2.416972
N of occupied +U levels =   59.441036
 --- exit write_ns ---
 --- in v_hubbard ---
Hubbard energy    0.0000
 -------
 
     Magnetic moment per site:
     atom:    1    charge:    6.5085    magn:    3.2912    constr:    0.0000
     atom:    2    charge:    6.5100    magn:    3.2901    constr:    0.0000
     atom:    3    charge:    6.5100    magn:    3.2901    constr:    0.0000
     atom:    4    charge:    6.5100    magn:    3.2901    constr:    0.0000
     atom:    5    charge:    6.5102    magn:    3.2896    constr:    0.0000
     atom:    6    charge:    6.5102    magn:    3.2896    constr:    0.0000
     atom:    7    charge:    6.5102    magn:    3.2896    constr:    0.0000
     atom:    8    charge:    6.5100    magn:    3.2901    constr:    0.0000

     total cpu time spent up to now is       13.1 secs

     total energy              =    -446.20470246 Ry
     Harris-Foulkes estimate   =    -446.06937851 Ry
     estimated scf accuracy    <       0.19114690 Ry

     total magnetization       =    22.38 Bohr mag/cell
     absolute magnetization    =    22.41 Bohr mag/cell

     iteration #  3     ecut=    30.00 Ry     beta=0.30
     Davidson diagonalization with overlap
     ethr =  2.99E-04,  avg # of iterations =  2.2
 --- enter write_ns ---
 LDA+U parameters:
U( 1)     =  0.00000000
alpha( 1) =  0.00000000
U( 2)     =  0.00000000
alpha( 2) =  0.00000000
atom    1   Tr[ns(na)] (up, down, total) =   4.95037  2.55766  7.50803
   spin  1
    eigenvalues: 
  0.986  0.986  0.986  0.996  0.996
    eigenvectors:
  0.000  0.000  0.000  0.567  0.433
  0.068  0.437  0.495  0.000  0.000
  0.325  0.233  0.441  0.000  0.000
  0.000  0.000  0.000  0.433  0.567
  0.607  0.330  0.063  0.000  0.000
    occupations:
  0.996  0.000  0.000  0.000  0.000
  0.000  0.986  0.000  0.000  0.000
  0.000  0.000  0.986  0.000  0.000
  0.000  0.000  0.000  0.996  0.000
  0.000  0.000  0.000  0.000  0.986
   spin  2
    eigenvalues: 
  0.454  0.454  0.550  0.550  0.550
    eigenvectors:
  0.552  0.448  0.000  0.000  0.000
  0.000  0.000  0.075  0.566  0.359
  0.000  0.000  0.335  0.136  0.530
  0.448  0.552  0.000  0.000  0.000
  0.000  0.000  0.590  0.299  0.111
    occupations:
  0.454  0.000  0.000  0.000  0.000
  0.000  0.550  0.000  0.000  0.000
  0.000  0.000  0.550  0.000  0.000
  0.000  0.000  0.000  0.454  0.000
  0.000  0.000  0.000  0.000  0.550
atomic mag. moment =     2.392711
atom    2   Tr[ns(na)] (up, down, total) =   4.94936  2.53887  7.48823
   spin  1
    eigenvalues: 
  0.986  0.986  0.986  0.996  0.996
    eigenvectors:
  0.000  0.000  0.000  0.546  0.454
  0.393  0.274  0.333  0.000  0.000
  0.019  0.647  0.333  0.000  0.000
  0.000  0.000  0.000  0.454  0.546
  0.588  0.079  0.333  0.000  0.000
    occupations:
  0.996  0.000  0.000  0.000  0.000
  0.000  0.986  0.000  0.000  0.000
  0.000  0.000  0.986  0.000  0.000
  0.000  0.000  0.000  0.996  0.000
  0.000  0.000  0.000  0.000  0.986
   spin  2
    eigenvalues: 
  0.451  0.451  0.545  0.545  0.546
    eigenvectors:
  0.511  0.489  0.000  0.000  0.000
  0.000  0.000  0.411  0.255  0.333
  0.000  0.000  0.014  0.653  0.333
  0.489  0.511  0.000  0.000  0.000
  0.000  0.000  0.575  0.092  0.333
    occupations:
  0.451  0.000  0.000  0.000  0.000
  0.000  0.546  0.000  0.000  0.000
  0.000  0.000  0.546  0.000  0.000
  0.000  0.000  0.000  0.451  0.000
  0.000  0.000  0.000  0.000  0.546
atomic mag. moment =     2.410491
atom    3   Tr[ns(na)] (up, down, total) =   4.94936  2.53887  7.48823
   spin  1
    eigenvalues: 
  0.986  0.986  0.986  0.996  0.996
    eigenvectors:
  0.000  0.000  0.000  0.559  0.441
  0.011  0.656  0.333  0.000  0.000
  0.569  0.098  0.333  0.000  0.000
  0.000  0.000  0.000  0.441  0.559
  0.420  0.246  0.333  0.000  0.000
    occupations:
  0.996  0.000  0.000  0.000  0.000
  0.000  0.986  0.000  0.000  0.000
  0.000  0.000  0.986  0.000  0.000
  0.000  0.000  0.000  0.996  0.000
  0.000  0.000  0.000  0.000  0.986
   spin  2
    eigenvalues: 
  0.451  0.451  0.545  0.545  0.546
    eigenvectors:
  0.610  0.390  0.000  0.000  0.000
  0.000  0.000  0.016  0.651  0.333
  0.000  0.000  0.580  0.087  0.333
  0.390  0.610  0.000  0.000  0.000
  0.000  0.000  0.404  0.262  0.333
    occupations:
  0.451  0.000  0.000  0.000  0.000
  0.000  0.546  0.000  0.000  0.000
  0.000  0.000  0.546  0.000  0.000
  0.000  0.000  0.000  0.451  0.000
  0.000  0.000  0.000  0.000  0.546
atomic mag. moment =     2.410491
atom    4   Tr[ns(na)] (up, down, total) =   4.94936  2.53887  7.48823
   spin  1
    eigenvalues: 
  0.986  0.986  0.986  0.996  0.996
    eigenvectors:
  0.000  0.000  0.000  0.579  0.421
  0.057  0.609  0.333  0.000  0.000
  0.310  0.357  0.333  0.000  0.000
  0.000  0.000  0.000  0.421  0.579
  0.633  0.034  0.333  0.000  0.000
    occupations:
  0.996  0.000  0.000  0.000  0.000
  0.000  0.986  0.000  0.000  0.000
  0.000  0.000  0.986  0.000  0.000
  0.000  0.000  0.000  0.996  0.000
  0.000  0.000  0.000  0.000  0.986
   spin  2
    eigenvalues: 
  0.451  0.451  0.545  0.545  0.546
    eigenvectors:
  0.565  0.435  0.000  0.000  0.000
  0.000  0.000  0.050  0.617  0.333
  0.000  0.000  0.323  0.343  0.333
  0.435  0.565  0.000  0.000  0.000
  0.000  0.000  0.627  0.040  0.333
    occupations:
  0.451  0.000  0.000  0.000  0.000
  0.000  0.546  0.000  0.000  0.000
  0.000  0.000  0.546  0.000  0.000
  0.000  0.000  0.000  0.451  0.000
  0.000  0.000  0.000  0.000  0.546
atomic mag. moment =     2.410491
atom    5   Tr[ns(na)] (up, down, total) =   4.94914  2.53565  7.48479
   spin  1
    eigenvalues: 
  0.986  0.986  0.986  0.996  0.996
    eigenvectors:
  0.000  0.000  0.000  0.250  0.750
  0.060  0.940  0.000  0.000  0.000
  0.000  0.000  1.000  0.000  0.000
  0.000  0.000  0.000  0.750  0.250
  0.940  0.060  0.000  0.000  0.000
    occupations:
  0.996  0.000  0.000  0.000  0.000
  0.000  0.986  0.000  0.000  0.000
  0.000  0.000  0.986  0.000  0.000
  0.000  0.000  0.000  0.996  0.000
  0.000  0.000  0.000  0.000  0.986
   spin  2
    eigenvalues: 
  0.451  0.451  0.545  0.545  0.545
    eigenvectors:
  0.750  0.250  0.000  0.000  0.000
  0.000  0.000  0.000  0.085  0.915
  0.000  0.000  1.000  0.000  0.000
  0.250  0.750  0.000  0.000  0.000
  0.000  0.000  0.000  0.915  0.085
    occupations:
  0.451  0.000  0.000  0.000  0.000
  0.000  0.545  0.000  0.000  0.000
  0.000  0.000  0.545  0.000  0.000
  0.000  0.000  0.000  0.451  0.000
  0.000  0.000  0.000  0.000  0.545
atomic mag. moment =     2.413497
atom    6   Tr[ns(na)] (up, down, total) =   4.94914  2.53565  7.48479
   spin  1
    eigenvalues: 
  0.986  0.986  0.986  0.996  0.996
    eigenvectors:
  0.000  0.000  0.000  0.250  0.750
  0.000  0.000  1.000  0.000  0.000
  0.354  0.646  0.000  0.000  0.000
  0.000  0.000  0.000  0.750  0.250
  0.646  0.354  0.000  0.000  0.000
    occupations:
  0.996  0.000  0.000  0.000  0.000
  0.000  0.986  0.000  0.000  0.000
  0.000  0.000  0.986  0.000  0.000
  0.000  0.000  0.000  0.996  0.000
  0.000  0.000  0.000  0.000  0.986
   spin  2
    eigenvalues: 
  0.451  0.451  0.545  0.545  0.545
    eigenvectors:
  0.750  0.250  0.000  0.000  0.000
  0.000  0.000  1.000  0.000  0.000
  0.000  0.000  0.000  0.334  0.666
  0.250  0.750  0.000  0.000  0.000
  0.000  0.000  0.000  0.666  0.334
    occupations:
  0.451  0.000  0.000  0.000  0.000
  0.000  0.545  0.000  0.000  0.000
  0.000  0.000  0.545  0.000  0.000
  0.000  0.000  0.000  0.451  0.000
  0.000  0.000  0.000  0.000  0.545
atomic mag. moment =     2.413497
atom    7   Tr[ns(na)] (up, down, total) =   4.94914  2.53565  7.48479
   spin  1
    eigenvalues: 
  0.986  0.986  0.986  0.996  0.996
    eigenvectors:
  0.000  0.000  0.000  1.000  0.000
  0.240  0.760  0.000  0.000  0.000
  0.760  0.240  0.000  0.000  0.000
  0.000  0.000  0.000  0.000  1.000
  0.000  0.000  1.000  0.000  0.000
    occupations:
  0.996  0.000  0.000  0.000  0.000
  0.000  0.986  0.000  0.000  0.000
  0.000  0.000  0.986  0.000  0.000
  0.000  0.000  0.000  0.996  0.000
  0.000  0.000  0.000  0.000  0.986
   spin  2
    eigenvalues: 
  0.451  0.451  0.545  0.545  0.545
    eigenvectors:
  0.000  1.000  0.000  0.000  0.000
  0.000  0.000  0.000  0.219  0.781
  0.000  0.000  0.000  0.781  0.219
  1.000  0.000  0.000  0.000  0.000
  0.000  0.000  1.000  0.000  0.000
    occupations:
  0.451  0.000  0.000  0.000  0.000
  0.000  0.545  0.000  0.000  0.000
  0.000  0.000  0.545  0.000  0.000
  0.000  0.000  0.000  0.451  0.000
  0.000  0.000  0.000  0.000  0.545
atomic mag. moment =     2.413497
atom    8   Tr[ns(na)] (up, down, total) =   4.94936  2.53887  7.48823
   spin  1
    eigenvalues: 
  0.986  0.986  0.986  0.996  0.996
    eigenvectors:
  0.000  0.000  0.000  0.538  0.462
  0.660  0.007  0.333  0.000  0.000
  0.112  0.555  0.333  0.000  0.000
  0.000  0.000  0.000  0.462  0.538
  0.228  0.438  0.333  0.000  0.000
    occupations:
  0.996  0.000  0.000  0.000  0.000
  0.000  0.986  0.000  0.000  0.000
  0.000  0.000  0.986  0.000  0.000
  0.000  0.000  0.000  0.996  0.000
  0.000  0.000  0.000  0.000  0.986
   spin  2
    eigenvalues: 
  0.451  0.451  0.545  0.545  0.546
    eigenvectors:
  0.583  0.417  0.000  0.000  0.000
  0.000  0.000  0.657  0.010  0.333
  0.000  0.000  0.102  0.565  0.333
  0.417  0.583  0.000  0.000  0.000
  0.000  0.000  0.241  0.426  0.333
    occupations:
  0.451  0.000  0.000  0.000  0.000
  0.000  0.546  0.000  0.000  0.000
  0.000  0.000  0.546  0.000  0.000
  0.000  0.000  0.000  0.451  0.000
  0.000  0.000  0.000  0.000  0.546
atomic mag. moment =     2.410491
N of occupied +U levels =   59.915312
 --- exit write_ns ---
 --- in v_hubbard ---
Hubbard energy    0.0000
 -------
 
     Magnetic moment per site:
     atom:    1    charge:    6.5341    magn:    2.8805    constr:    0.0000
     atom:    2    charge:    6.5175    magn:    2.8915    constr:    0.0000
     atom:    3    charge:    6.5175    magn:    2.8915    constr:    0.0000
     atom:    4    charge:    6.5175    magn:    2.8915    constr:    0.0000
     atom:    5    charge:    6.5146    magn:    2.8932    constr:    0.0000
     atom:    6    charge:    6.5146    magn:    2.8932    constr:    0.0000
     atom:    7    charge:    6.5146    magn:    2.8932    constr:    0.0000
     atom:    8    charge:    6.5175    magn:    2.8915    constr:    0.0000

     total cpu time spent up to now is       18.0 secs

     total energy              =    -446.35033154 Ry
     Harris-Foulkes estimate   =    -446.26240747 Ry
     estimated scf accuracy    <       0.04581331 Ry

     total magnetization       =    22.42 Bohr mag/cell
     absolute magnetization    =    22.52 Bohr mag/cell

     iteration #  4     ecut=    30.00 Ry     beta=0.30
     Davidson diagonalization with overlap
     ethr =  7.16E-05,  avg # of iterations =  2.8
 --- enter write_ns ---
 LDA+U parameters:
U( 1)     =  0.00000000
alpha( 1) =  0.00000000
U( 2)     =  0.00000000
alpha( 2) =  0.00000000
atom    1   Tr[ns(na)] (up, down, total) =   4.85118  2.36046  7.21164
   spin  1
    eigenvalues: 
  0.966  0.966  0.966  0.977  0.977
    eigenvectors:
  0.000  0.000  0.000  0.646  0.354
  0.070  0.345  0.585  0.000  0.000
  0.352  0.276  0.371  0.000  0.000
  0.000  0.000  0.000  0.354  0.646
  0.578  0.378  0.044  0.000  0.000
    occupations:
  0.977  0.000  0.000  0.000  0.000
  0.000  0.966  0.000  0.000  0.000
  0.000  0.000  0.966  0.000  0.000
  0.000  0.000  0.000  0.977  0.000
  0.000  0.000  0.000  0.000  0.966
   spin  2
    eigenvalues: 
  0.422  0.422  0.506  0.506  0.506
    eigenvectors:
  0.504  0.496  0.000  0.000  0.000
  0.000  0.000  0.065  0.419  0.516
  0.000  0.000  0.312  0.258  0.431
  0.496  0.504  0.000  0.000  0.000
  0.000  0.000  0.623  0.323  0.054
    occupations:
  0.422  0.000  0.000  0.000  0.000
  0.000  0.506  0.000  0.000  0.000
  0.000  0.000  0.506  0.000  0.000
  0.000  0.000  0.000  0.422  0.000
  0.000  0.000  0.000  0.000  0.506
atomic mag. moment =     2.490726
atom    2   Tr[ns(na)] (up, down, total) =   4.89514  2.57172  7.46686
   spin  1
    eigenvalues: 
  0.972  0.977  0.977  0.984  0.984
    eigenvectors:
  0.000  0.001  0.000  0.673  0.326
  0.333  0.395  0.272  0.000  0.000
  0.333  0.019  0.647  0.000  0.001
  0.000  0.000  0.001  0.326  0.673
  0.333  0.586  0.080  0.000  0.000
    occupations:
  0.984  0.000  0.000  0.000  0.000
  0.000  0.976 -0.002  0.000  0.002
  0.000 -0.002  0.976  0.000  0.002
  0.000  0.000  0.000  0.984  0.000
  0.000  0.002  0.002  0.000  0.976
   spin  2
    eigenvalues: 
  0.449  0.449  0.551  0.562  0.562
    eigenvectors:
  0.648  0.352  0.000  0.000  0.000
  0.000  0.000  0.333  0.477  0.189
  0.000  0.000  0.333  0.001  0.665
  0.352  0.648  0.000  0.000  0.000
  0.000  0.000  0.333  0.522  0.145
    occupations:
  0.449 -0.001 -0.001  0.000 -0.002
 -0.001  0.558 -0.004 -0.002  0.004
 -0.001 -0.004  0.558  0.002  0.004
  0.000 -0.002  0.002  0.449  0.000
 -0.002  0.004  0.004  0.000  0.558
atomic mag. moment =     2.323417
atom    3   Tr[ns(na)] (up, down, total) =   4.89514  2.57172  7.46686
   spin  1
    eigenvalues: 
  0.972  0.977  0.977  0.984  0.984
    eigenvectors:
  0.000  0.001  0.000  0.436  0.563
  0.333  0.016  0.650  0.001  0.000
  0.333  0.579  0.087  0.000  0.001
  0.000  0.000  0.001  0.563  0.436
  0.333  0.404  0.262  0.000  0.000
    occupations:
  0.984  0.000  0.000  0.000  0.000
  0.000  0.976  0.002  0.000  0.002
  0.000  0.002  0.976  0.000 -0.002
  0.000  0.000  0.000  0.984  0.000
  0.000  0.002 -0.002  0.000  0.976
   spin  2
    eigenvalues: 
  0.449  0.449  0.551  0.562  0.562
    eigenvectors:
  0.503  0.497  0.000  0.000  0.000
  0.000  0.000  0.333  0.016  0.650
  0.000  0.000  0.333  0.581  0.086
  0.497  0.503  0.000  0.000  0.000
  0.000  0.000  0.333  0.403  0.264
    occupations:
  0.449  0.001 -0.001  0.000  0.002
  0.001  0.558  0.004  0.002  0.004
 -0.001  0.004  0.558  0.002 -0.004
  0.000  0.002  0.002  0.449  0.000
  0.002  0.004 -0.004  0.000  0.558
atomic mag. moment =     2.323417
atom    4   Tr[ns(na)] (up, down, total) =   4.89514  2.57172  7.46686
   spin  1
    eigenvalues: 
  0.972  0.977  0.977  0.984  0.984
    eigenvectors:
  0.000  0.001  0.000  0.549  0.450
  0.333  0.059  0.607  0.001  0.000
  0.333  0.306  0.360  0.000  0.001
  0.000  0.000  0.001  0.450  0.549
  0.333  0.634  0.032  0.000  0.000
    occupations:
  0.984  0.000  0.000  0.000  0.000
  0.000  0.976 -0.002  0.000 -0.002
  0.000 -0.002  0.976  0.000 -0.002
  0.000  0.000  0.000  0.984  0.000
  0.000 -0.002 -0.002  0.000  0.976
   spin  2
    eigenvalues: 
  0.449  0.449  0.551  0.562  0.562
    eigenvectors:
  0.532  0.467  0.000  0.000  0.000
  0.000  0.000  0.333  0.055  0.612
  0.000  0.000  0.333  0.314  0.352
  0.467  0.532  0.000  0.000  0.000
  0.000  0.000  0.333  0.631  0.036
    occupations:
  0.449  0.001  0.001  0.000 -0.002
  0.001  0.558 -0.004  0.002 -0.004
  0.001 -0.004  0.558 -0.002 -0.004
  0.000  0.002 -0.002  0.449  0.000
 -0.002 -0.004 -0.004  0.000  0.558
atomic mag. moment =     2.323417
atom    5   Tr[ns(na)] (up, down, total) =   4.90409  2.61956  7.52365
   spin  1
    eigenvalues: 
  0.977  0.977  0.979  0.985  0.986
    eigenvectors:
  0.000  0.000  0.000  0.250  0.750
  0.065  0.935  0.000  0.000  0.000
  0.000  0.000  1.000  0.000  0.000
  0.000  0.000  0.000  0.750  0.250
  0.935  0.065  0.000  0.000  0.000
    occupations:
  0.985  0.000  0.000  0.000  0.000
  0.000  0.977  0.000  0.000  0.000
  0.000  0.000  0.979  0.000  0.000
  0.000  0.000  0.000  0.985  0.000
  0.000  0.000  0.000  0.000  0.977
   spin  2
    eigenvalues: 
  0.453  0.454  0.571  0.571  0.572
    eigenvectors:
  0.750  0.250  0.000  0.000  0.000
  0.000  0.000  0.072  0.928  0.000
  0.000  0.000  0.000  0.000  1.000
  0.250  0.750  0.000  0.000  0.000
  0.000  0.000  0.928  0.072  0.000
    occupations:
  0.453  0.000  0.000 -0.001  0.000
  0.000  0.571  0.000  0.000  0.000
  0.000  0.000  0.572  0.000  0.000
 -0.001  0.000  0.000  0.454  0.000
  0.000  0.000  0.000  0.000  0.571
atomic mag. moment =     2.284526
atom    6   Tr[ns(na)] (up, down, total) =   4.90409  2.61956  7.52365
   spin  1
    eigenvalues: 
  0.977  0.977  0.979  0.985  0.986
    eigenvectors:
  0.000  0.000  0.000  0.250  0.750
  0.000  0.000  1.000  0.000  0.000
  0.346  0.654  0.000  0.000  0.000
  0.000  0.000  0.000  0.750  0.250
  0.654  0.346  0.000  0.000  0.000
    occupations:
  0.985  0.000  0.000  0.000  0.000
  0.000  0.979  0.000  0.000  0.000
  0.000  0.000  0.977  0.000  0.000
  0.000  0.000  0.000  0.985  0.000
  0.000  0.000  0.000  0.000  0.977
   spin  2
    eigenvalues: 
  0.453  0.454  0.571  0.571  0.572
    eigenvectors:
  0.750  0.250  0.000  0.000  0.000
  0.000  0.000  0.000  0.000  1.000
  0.000  0.000  0.337  0.663  0.000
  0.250  0.750  0.000  0.000  0.000
  0.000  0.000  0.663  0.337  0.000
    occupations:
  0.453  0.000  0.000  0.001  0.000
  0.000  0.572  0.000  0.000  0.000
  0.000  0.000  0.571  0.000  0.000
  0.001  0.000  0.000  0.454  0.000
  0.000  0.000  0.000  0.000  0.571
atomic mag. moment =     2.284526
atom    7   Tr[ns(na)] (up, down, total) =   4.90409  2.61956  7.52365
   spin  1
    eigenvalues: 
  0.977  0.977  0.979  0.985  0.986
    eigenvectors:
  0.000  0.000  0.000  1.000  0.000
  0.252  0.748  0.000  0.000  0.000
  0.748  0.252  0.000  0.000  0.000
  0.000  0.000  0.000  0.000  1.000
  0.000  0.000  1.000  0.000  0.000
    occupations:
  0.985  0.000  0.000  0.000  0.000
  0.000  0.977  0.000  0.000  0.000
  0.000  0.000  0.977  0.000  0.000
  0.000  0.000  0.000  0.986  0.000
  0.000  0.000  0.000  0.000  0.979
   spin  2
    eigenvalues: 
  0.453  0.454  0.571  0.571  0.572
    eigenvectors:
  0.000  1.000  0.000  0.000  0.000
  0.000  0.000  0.270  0.730  0.000
  0.000  0.000  0.730  0.270  0.000
  1.000  0.000  0.000  0.000  0.000
  0.000  0.000  0.000  0.000  1.000
    occupations:
  0.454  0.000  0.000  0.000  0.000
  0.000  0.571  0.000  0.000  0.000
  0.000  0.000  0.571  0.000  0.000
  0.000  0.000  0.000  0.453  0.000
  0.000  0.000  0.000  0.000  0.572
atomic mag. moment =     2.284526
atom    8   Tr[ns(na)] (up, down, total) =   4.89514  2.57172  7.46686
   spin  1
    eigenvalues: 
  0.972  0.977  0.977  0.984  0.984
    eigenvectors:
  0.000  0.000  0.001  0.589  0.410
  0.333  0.662  0.004  0.001  0.000
  0.333  0.122  0.544  0.000  0.001
  0.000  0.001  0.000  0.410  0.589
  0.333  0.216  0.450  0.000  0.000
    occupations:
  0.984  0.000  0.000  0.000  0.000
  0.000  0.976  0.002  0.000 -0.002
  0.000  0.002  0.976  0.000  0.002
  0.000  0.000  0.000  0.984  0.000
  0.000 -0.002  0.002  0.000  0.976
   spin  2
    eigenvalues: 
  0.449  0.449  0.551  0.562  0.562
    eigenvectors:
  0.689  0.310  0.000  0.000  0.000
  0.000  0.000  0.333  0.666  0.000
  0.000  0.000  0.333  0.157  0.509
  0.310  0.689  0.000  0.000  0.000
  0.000  0.000  0.333  0.176  0.490
    occupations:
  0.449 -0.001  0.001  0.000  0.002
 -0.001  0.558  0.004 -0.002 -0.004
  0.001  0.004  0.558 -0.002  0.004
  0.000 -0.002 -0.002  0.449  0.000
  0.002 -0.004  0.004  0.000  0.558
atomic mag. moment =     2.323417
N of occupied +U levels =   59.650015
 --- exit write_ns ---
 --- in v_hubbard ---
Hubbard energy    0.0000
 -------
 
     Magnetic moment per site:
     atom:    1    charge:    6.5050    magn:    2.8026    constr:    0.0000
     atom:    2    charge:    6.5088    magn:    2.8057    constr:    0.0000
     atom:    3    charge:    6.5088    magn:    2.8057    constr:    0.0000
     atom:    4    charge:    6.5088    magn:    2.8057    constr:    0.0000
     atom:    5    charge:    6.5103    magn:    2.8054    constr:    0.0000
     atom:    6    charge:    6.5103    magn:    2.8054    constr:    0.0000
     atom:    7    charge:    6.5103    magn:    2.8054    constr:    0.0000
     atom:    8    charge:    6.5088    magn:    2.8057    constr:    0.0000

     total cpu time spent up to now is       23.2 secs

     total energy              =    -446.40287028 Ry
     Harris-Foulkes estimate   =    -446.40156223 Ry
     estimated scf accuracy    <       0.13789104 Ry

     total magnetization       =    20.44 Bohr mag/cell
     absolute magnetization    =    21.38 Bohr mag/cell

     iteration #  5     ecut=    30.00 Ry     beta=0.30
     Davidson diagonalization with overlap
     ethr =  7.16E-05,  avg # of iterations =  1.0
 --- enter write_ns ---
 LDA+U parameters:
U( 1)     =  0.00000000
alpha( 1) =  0.00000000
U( 2)     =  0.00000000
alpha( 2) =  0.00000000
atom    1   Tr[ns(na)] (up, down, total) =   4.89785  2.62766  7.52551
   spin  1
    eigenvalues: 
  0.975  0.975  0.975  0.986  0.986
    eigenvectors:
  0.000  0.000  0.000  0.448  0.552
  0.071  0.341  0.588  0.000  0.000
  0.349  0.280  0.371  0.000  0.000
  0.000  0.000  0.000  0.552  0.448
  0.580  0.379  0.042  0.000  0.000
    occupations:
  0.986  0.000  0.000  0.000  0.000
  0.000  0.975  0.000  0.000  0.000
  0.000  0.000  0.975  0.000  0.000
  0.000  0.000  0.000  0.986  0.000
  0.000  0.000  0.000  0.000  0.975
   spin  2
    eigenvalues: 
  0.454  0.454  0.574  0.574  0.574
    eigenvectors:
  0.687  0.313  0.000  0.000  0.000
  0.000  0.000  0.077  0.656  0.267
  0.000  0.000  0.324  0.087  0.589
  0.313  0.687  0.000  0.000  0.000
  0.000  0.000  0.599  0.257  0.144
    occupations:
  0.454  0.000  0.000  0.000  0.000
  0.000  0.574  0.000  0.000  0.000
  0.000  0.000  0.574  0.000  0.000
  0.000  0.000  0.000  0.454  0.000
  0.000  0.000  0.000  0.000  0.574
atomic mag. moment =     2.270187
atom    2   Tr[ns(na)] (up, down, total) =   4.88896  2.57969  7.46866
   spin  1
    eigenvalues: 
  0.973  0.973  0.975  0.985  0.985
    eigenvectors:
  0.000  0.000  0.000  0.554  0.446
  0.426  0.241  0.333  0.000  0.000
  0.010  0.657  0.333  0.000  0.000
  0.000  0.000  0.000  0.446  0.554
  0.564  0.102  0.333  0.000  0.000
    occupations:
  0.985  0.000  0.000  0.000  0.000
  0.000  0.973  0.001  0.000 -0.001
  0.000  0.001  0.973  0.000 -0.001
  0.000  0.000  0.000  0.985  0.000
  0.000 -0.001 -0.001  0.000  0.973
   spin  2
    eigenvalues: 
  0.447  0.447  0.561  0.561  0.563
    eigenvectors:
  0.533  0.467  0.000  0.000  0.000
  0.000  0.000  0.435  0.232  0.333
  0.000  0.000  0.008  0.659  0.333
  0.467  0.533  0.000  0.000  0.000
  0.000  0.000  0.557  0.109  0.333
    occupations:
  0.447  0.000  0.000  0.000  0.001
  0.000  0.562  0.001  0.001 -0.001
  0.000  0.001  0.562 -0.001 -0.001
  0.000  0.001 -0.001  0.447  0.000
  0.001 -0.001 -0.001  0.000  0.562
atomic mag. moment =     2.309267
atom    3   Tr[ns(na)] (up, down, total) =   4.88896  2.57969  7.46866
   spin  1
    eigenvalues: 
  0.973  0.973  0.975  0.985  0.985
    eigenvectors:
  0.000  0.000  0.000  0.563  0.437
  0.014  0.653  0.333  0.000  0.000
  0.576  0.091  0.333  0.000  0.000
  0.000  0.000  0.000  0.437  0.563
  0.410  0.257  0.333  0.000  0.000
    occupations:
  0.985  0.000  0.000  0.000  0.000
  0.000  0.973 -0.001  0.000 -0.001
[...]
    11.7086  11.7086  11.8396  11.8396  11.8396  11.8397  11.8397  11.8397
    12.7340  12.7340  12.7340  12.9868  12.9868  12.9868  12.9868  12.9868
    12.9868  13.5749  13.5749  13.5749  13.5749  13.5749  13.5749  19.8761
    19.8761  19.8761

     occupation numbers 
     1.0000   1.0000   1.0000   1.0000   1.0000   1.0000   1.0000   1.0000
     1.0000   1.0000   1.0000   1.0000   1.0000   1.0000   1.0000   1.0000
     1.0000   1.0000   1.0000   1.0000   1.0000   1.0000   1.0000   1.0000
     1.0000   1.0000   1.0000   1.0000   1.0000   1.0000   1.0000   1.0000
     0.8941   0.8941   0.8941  -0.0344  -0.0344  -0.0344  -0.0344  -0.0344
    -0.0344   0.0000   0.0000   0.0000   0.0000   0.0000   0.0000   0.0000
     0.0000   0.0000

          k = 0.0000-0.2500 0.2500 (  1773 PWs)   bands (ev):

     5.3650   8.0149   8.3762   8.3762   8.3762   8.3762   8.4024   8.4148
     8.4515   9.5508   9.5508   9.5508   9.5508   9.6037   9.8375  10.3111
    10.4462  10.6048  10.7869  11.0905  11.0905  11.0905  11.0905  11.4628
    11.4746  11.5402  11.6736  11.6736  11.6736  11.6737  11.6836  11.8030
    11.8660  12.0942  12.2138  12.2138  12.2138  12.2138  12.2649  12.5560
    12.7706  12.9491  14.6128  14.6128  14.6128  14.6128  15.2749  19.9881
    20.9770  20.9783

     occupation numbers 
     1.0000   1.0000   1.0000   1.0000   1.0000   1.0000   1.0000   1.0000
     1.0000   1.0000   1.0000   1.0000   1.0000   1.0000   1.0000   1.0000
     1.0000   1.0000   1.0000   1.0000   1.0000   1.0000   1.0000   1.0000
     1.0000   1.0000   1.0000   1.0000   1.0000   1.0000   1.0000   1.0000
     1.0000   1.0000   1.0000   1.0000   1.0000   1.0000   1.0000   1.0125
     0.7246  -0.0284   0.0000   0.0000   0.0000   0.0000   0.0000   0.0000
     0.0000   0.0000

          k = 0.0000 0.5000-0.5000 (  1766 PWs)   bands (ev):

     6.9461   6.9461   8.7596   8.7596   8.9207   8.9207   8.9207   8.9208
     9.2765   9.2766   9.5677   9.5677   9.5677   9.5677   9.9490   9.9490
    10.1943  10.1943  10.1944  10.1944  10.4010  10.4010  10.8463  10.8463
    11.4335  11.4335  11.5023  11.5023  11.6079  11.6079  11.6079  11.6079
    11.6172  11.6172  11.7318  11.7318  12.0281  12.0281  12.0282  12.0282
    12.8596  12.8596  15.0336  15.0336  15.0336  15.0336  17.9594  17.9594
    20.4782  20.4783

     occupation numbers 
     1.0000   1.0000   1.0000   1.0000   1.0000   1.0000   1.0000   1.0000
     1.0000   1.0000   1.0000   1.0000   1.0000   1.0000   1.0000   1.0000
     1.0000   1.0000   1.0000   1.0000   1.0000   1.0000   1.0000   1.0000
     1.0000   1.0000   1.0000   1.0000   1.0000   1.0000   1.0000   1.0000
     1.0000   1.0000   1.0000   1.0000   1.0000   1.0000   1.0000   1.0000
     0.2042   0.2041   0.0000   0.0000   0.0000   0.0000   0.0000   0.0000
     0.0000   0.0000

          k =-0.2500 0.7500-0.5000 (  1758 PWs)   bands (ev):

     6.4992   8.0386   8.0386   8.8553   8.8799   8.8846   8.8877   8.8877
     9.0076   9.5013   9.6012   9.7066   9.7066   9.7769   9.7769  10.1475
    10.1554  10.1617  10.1617  10.1931  10.2416  10.2568  10.2568  10.9744
    11.4014  11.4589  11.4898  11.4898  11.5230  11.5230  11.7405  11.7647
    11.7748  11.8171  11.8863  11.8863  12.0120  12.0815  12.5234  12.5234
    12.5816  12.7117  12.7117  14.7141  16.1420  16.1420  17.6742  18.3331
    20.2207  21.5591

     occupation numbers 
     1.0000   1.0000   1.0000   1.0000   1.0000   1.0000   1.0000   1.0000
     1.0000   1.0000   1.0000   1.0000   1.0000   1.0000   1.0000   1.0000
     1.0000   1.0000   1.0000   1.0000   1.0000   1.0000   1.0000   1.0000
     1.0000   1.0000   1.0000   1.0000   1.0000   1.0000   1.0000   1.0000
     1.0000   1.0000   1.0000   1.0000   1.0000   1.0000   1.0058   1.0058
     1.0201   0.9632   0.9632   0.0000   0.0000   0.0000   0.0000   0.0000
     0.0000   0.0000

          k = 0.0000 0.0000 0.5000 (  1773 PWs)   bands (ev):

     5.9572   8.3884   8.3884   8.3884   8.3884   8.6226   8.6736   8.8096
     8.8096   9.4095   9.4095   9.9614   9.9614   9.9614   9.9614  10.3310
    10.3310  10.3310  10.3310  10.4982  10.4982  10.7870  10.8571  10.8571
    11.1564  11.4527  11.4527  11.4527  11.4527  11.7980  11.7980  11.8560
    11.8560  11.8722  11.9480  11.9480  12.3900  12.5035  12.5035  12.5035
    12.5036  13.3145  13.3145  13.3145  13.3145  16.8332  16.8332  17.6184
    20.1636  20.1636

     occupation numbers 
     1.0000   1.0000   1.0000   1.0000   1.0000   1.0000   1.0000   1.0000
     1.0000   1.0000   1.0000   1.0000   1.0000   1.0000   1.0000   1.0000
     1.0000   1.0000   1.0000   1.0000   1.0000   1.0000   1.0000   1.0000
     1.0000   1.0000   1.0000   1.0000   1.0000   1.0000   1.0000   1.0000
     1.0000   1.0000   1.0000   1.0000   1.0001   1.0034   1.0034   1.0034
     1.0034   0.0000   0.0000   0.0000   0.0000   0.0000   0.0000   0.0000
     0.0000   0.0000

          k = 0.0000 0.7500-0.2500 (  1780 PWs)   bands (ev):

     7.4330   7.4330   8.5992   8.5992   8.8728   8.8728   9.2389   9.2389
     9.3169   9.3169   9.6003   9.6004   9.7258   9.7258  10.0577  10.0577
    10.2646  10.2646  10.3036  10.3036  10.4285  10.4285  10.9139  10.9139
    11.0788  11.0788  11.1898  11.1898  11.3224  11.3224  11.5451  11.5451
    11.8291  11.8291  11.8774  11.8775  12.0880  12.0881  12.1296  12.1296
    12.3860  12.3860  13.3424  13.3424  15.1082  15.1082  17.7620  17.7620
    21.9268  21.9268

     occupation numbers 
     1.0000   1.0000   1.0000   1.0000   1.0000   1.0000   1.0000   1.0000
     1.0000   1.0000   1.0000   1.0000   1.0000   1.0000   1.0000   1.0000
     1.0000   1.0000   1.0000   1.0000   1.0000   1.0000   1.0000   1.0000
     1.0000   1.0000   1.0000   1.0000   1.0000   1.0000   1.0000   1.0000
     1.0000   1.0000   1.0000   1.0000   1.0000   1.0000   1.0000   1.0000
     1.0001   1.0001   0.0000   0.0000   0.0000   0.0000   0.0000   0.0000
     0.0000   0.0000

          k = 0.5000-0.5000 0.5000 (  1772 PWs)   bands (ev):

     7.9248   7.9248   7.9248   7.9248   9.4021   9.4021   9.4021   9.4021
     9.4021   9.4021   9.4021   9.4021   9.7757   9.7757   9.7757   9.7757
     9.7757   9.7757   9.7757   9.7757   9.8001   9.8001   9.8001   9.8001
    11.6770  11.6770  11.6770  11.6770  11.6770  11.6770  11.6770  11.6770
    12.1241  12.1241  12.1241  12.1241  12.1241  12.1242  12.1242  12.1242
    12.7409  12.7409  12.7409  12.7409  19.8131  19.8131  19.8131  19.8131
    19.8131  19.8131

     occupation numbers 
     1.0000   1.0000   1.0000   1.0000   1.0000   1.0000   1.0000   1.0000
     1.0000   1.0000   1.0000   1.0000   1.0000   1.0000   1.0000   1.0000
     1.0000   1.0000   1.0000   1.0000   1.0000   1.0000   1.0000   1.0000
     1.0000   1.0000   1.0000   1.0000   1.0000   1.0000   1.0000   1.0000
     1.0000   1.0000   1.0000   1.0000   1.0000   1.0000   1.0000   1.0000
     0.8672   0.8671   0.8671   0.8671   0.0000   0.0000   0.0000   0.0000
     0.0000   0.0000

          k = 0.0000 0.0000-1.0000 (  1830 PWs)   bands (ev):

     8.4262   8.4262   8.4262   8.4262   8.4262   8.4262   9.6597   9.6597
     9.6597   9.6597   9.6597   9.6597   9.9058   9.9058   9.9058   9.9058
     9.9058   9.9058  10.9007  10.9007  10.9007  10.9007  10.9007  10.9007
    10.9007  10.9007  10.9007  10.9007  10.9007  10.9007  11.5760  11.5760
    11.5760  11.5761  11.5761  11.5761  11.8727  11.8727  11.8728  11.8728
    12.9646  12.9646  12.9646  12.9646  12.9646  12.9646  21.3186  21.3186
    21.3186  21.3186

     occupation numbers 
     1.0000   1.0000   1.0000   1.0000   1.0000   1.0000   1.0000   1.0000
     1.0000   1.0000   1.0000   1.0000   1.0000   1.0000   1.0000   1.0000
     1.0000   1.0000   1.0000   1.0000   1.0000   1.0000   1.0000   1.0000
     1.0000   1.0000   1.0000   1.0000   1.0000   1.0000   1.0000   1.0000
     1.0000   1.0000   1.0000   1.0000   1.0000   1.0000   1.0000   1.0000
    -0.0345  -0.0345  -0.0345  -0.0345  -0.0345  -0.0345   0.0000   0.0000
     0.0000   0.0000

 ------ SPIN DOWN ----------


          k = 0.0000 0.0000 0.0000 (  1745 PWs)   bands (ev):

     4.8035   9.6060   9.6060   9.6060   9.6060   9.6061   9.6061  10.2456
    10.2456  11.6806  11.6806  11.6806  11.6806  11.6806  11.6806  12.9429
    12.9429  12.9429  13.5494  13.5494  13.5494  13.5494  13.5494  13.5494
    14.7266  14.7266  14.7266  14.7267  14.7267  14.7267  14.8396  14.8396
    15.0954  15.0954  15.0954  15.0954  15.0954  15.0954  15.5642  15.5642
    15.5642  15.8593  15.8593  15.8593  15.8593  15.8593  15.8593  21.4983
    21.4983  21.4983

     occupation numbers 
     1.0000   1.0000   1.0000   1.0000   1.0000   1.0000   1.0000   1.0000
     1.0000   1.0000   1.0000   1.0000   1.0000   1.0000   1.0000  -0.0241
    -0.0241  -0.0241   0.0000   0.0000   0.0000   0.0000   0.0000   0.0000
     0.0000   0.0000   0.0000   0.0000   0.0000   0.0000   0.0000   0.0000
     0.0000   0.0000   0.0000   0.0000   0.0000   0.0000   0.0000   0.0000
     0.0000   0.0000   0.0000   0.0000   0.0000   0.0000   0.0000   0.0000
     0.0000   0.0000

          k = 0.0000-0.2500 0.2500 (  1773 PWs)   bands (ev):

     5.4306   9.0173   9.8357   9.8357   9.8357   9.8357  10.0383  10.4882
    10.5039  11.7374  11.7374  11.7374  11.7374  11.8515  12.0909  12.4179
    12.5957  12.5957  12.5957  12.5957  12.6816  12.7425  12.8825  13.3022
    14.3068  14.6510  14.6580  14.6580  14.6580  14.6580  14.6635  14.7206
    14.8569  14.8927  15.0362  15.1907  15.1907  15.1907  15.1907  15.3422
    15.6068  15.8152  16.5421  16.5422  16.5422  16.5422  16.6454  21.4948
    21.5213  22.2840

     occupation numbers 
     1.0000   1.0000   1.0000   1.0000   1.0000   1.0000   1.0000   1.0000
     1.0000   1.0000   1.0000   1.0000   1.0000   1.0000   1.0000   1.0002
     1.0248   1.0248   1.0248   1.0248   1.0164   0.8605   0.1056   0.0000
     0.0000   0.0000   0.0000   0.0000   0.0000   0.0000   0.0000   0.0000
     0.0000   0.0000   0.0000   0.0000   0.0000   0.0000   0.0000   0.0000
     0.0000   0.0000   0.0000   0.0000   0.0000   0.0000   0.0000   0.0000
     0.0000   0.0000

          k = 0.0000 0.5000-0.5000 (  1766 PWs)   bands (ev):

     7.1292   7.1292  10.1851  10.1851  10.1851  10.1851  10.7220  10.7220
    11.2203  11.2203  11.5954  11.5954  11.5954  11.5954  12.0346  12.0346
    12.0346  12.0346  12.2827  12.2827  12.5803  12.5804  13.2278  13.2278
    13.9453  13.9453  14.2460  14.2460  14.5217  14.5217  14.5722  14.5722
    14.5722  14.5722  14.9257  14.9257  15.1148  15.1148  15.1149  15.1149
    15.7107  15.7107  17.0539  17.0539  17.0539  17.0539  19.0384  19.0384
    21.6977  21.6977

     occupation numbers 
     1.0000   1.0000   1.0000   1.0000   1.0000   1.0000   1.0000   1.0000
     1.0000   1.0000   1.0000   1.0000   1.0000   1.0000   1.0000   1.0000
     1.0000   1.0000   1.0000   1.0000   1.0197   1.0197  -0.0001  -0.0001
     0.0000   0.0000   0.0000   0.0000   0.0000   0.0000   0.0000   0.0000
     0.0000   0.0000   0.0000   0.0000   0.0000   0.0000   0.0000   0.0000
     0.0000   0.0000   0.0000   0.0000   0.0000   0.0000   0.0000   0.0000
     0.0000   0.0000

          k =-0.2500 0.7500-0.5000 (  1758 PWs)   bands (ev):

     6.6063   8.5397   8.5397   9.9744  10.5396  10.5396  10.7729  10.7742
    10.9834  11.6115  11.6255  11.6565  11.6565  11.7996  11.9324  12.0209
    12.0209  12.2268  12.2268  12.3605  12.3605  12.4959  12.5521  13.3081
    14.0231  14.2487  14.2488  14.4296  14.4592  14.4592  14.6245  14.7548
    14.8595  14.9616  15.0276  15.0276  15.0460  15.0891  15.2895  15.2895
    15.3343  15.3343  15.3528  16.8420  17.7389  17.7389  19.0293  19.4689
    21.5534  22.7214

     occupation numbers 
     1.0000   1.0000   1.0000   1.0000   1.0000   1.0000   1.0000   1.0000
     1.0000   1.0000   1.0000   1.0000   1.0000   1.0000   1.0000   1.0000
     1.0000   1.0000   1.0000   1.0000   1.0000   1.0027   1.0115   0.0000
     0.0000   0.0000   0.0000   0.0000   0.0000   0.0000   0.0000   0.0000
     0.0000   0.0000   0.0000   0.0000   0.0000   0.0000   0.0000   0.0000
     0.0000   0.0000   0.0000   0.0000   0.0000   0.0000   0.0000   0.0000
     0.0000   0.0000

          k = 0.0000 0.0000 0.5000 (  1773 PWs)   bands (ev):

     6.0352   9.4631   9.4631   9.4631   9.4631  10.4434  10.4434  10.4671
    10.8682  11.4801  11.4801  12.2307  12.2307  12.2307  12.2307  12.2442
    12.2442  12.2442  12.2442  12.2798  12.2798  12.9226  12.9226  13.3089
    14.1312  14.2222  14.2222  14.2222  14.2222  14.4996  14.4996  14.9158
    14.9158  15.0859  15.1185  15.1185  15.1619  15.2786  15.2786  15.2786
    15.2786  15.6963  15.6963  15.6964  15.6964  18.2459  18.2459  18.6618
    21.5735  21.5735

     occupation numbers 
     1.0000   1.0000   1.0000   1.0000   1.0000   1.0000   1.0000   1.0000
     1.0000   1.0000   1.0000   1.0000   1.0000   1.0000   1.0000   1.0000
     1.0000   1.0000   1.0000   1.0000   1.0000   0.0002   0.0002   0.0000
     0.0000   0.0000   0.0000   0.0000   0.0000   0.0000   0.0000   0.0000
     0.0000   0.0000   0.0000   0.0000   0.0000   0.0000   0.0000   0.0000
     0.0000   0.0000   0.0000   0.0000   0.0000   0.0000   0.0000   0.0000
     0.0000   0.0000

          k = 0.0000 0.7500-0.2500 (  1780 PWs)   bands (ev):

     7.6600   7.6600   9.3313   9.3313  10.2672  10.2672  11.0226  11.0226
    11.4457  11.4457  11.5512  11.5513  11.6522  11.6522  12.0129  12.0129
    12.6222  12.6223  12.6468  12.6468  12.6707  12.6707  13.3063  13.3063
    13.8255  13.8255  13.8363  13.8363  13.8539  13.8539  14.1610  14.1610
    14.9069  14.9069  15.0114  15.0114  15.1082  15.1082  15.1397  15.1397
    15.2664  15.2664  15.8276  15.8276  16.8593  16.8593  19.2288  19.2288
    22.9370  22.9370

     occupation numbers 
     1.0000   1.0000   1.0000   1.0000   1.0000   1.0000   1.0000   1.0000
     1.0000   1.0000   1.0000   1.0000   1.0000   1.0000   1.0000   1.0000
     1.0329   1.0329   1.0352   1.0352   1.0262   1.0262   0.0000   0.0000
     0.0000   0.0000   0.0000   0.0000   0.0000   0.0000   0.0000   0.0000
     0.0000   0.0000   0.0000   0.0000   0.0000   0.0000   0.0000   0.0000
     0.0000   0.0000   0.0000   0.0000   0.0000   0.0000   0.0000   0.0000
     0.0000   0.0000

          k = 0.5000-0.5000 0.5000 (  1772 PWs)   bands (ev):

     8.1729   8.1729   8.1729   8.1729  11.3564  11.3564  11.3564  11.3564
    11.3564  11.3564  11.3565  11.3565  11.8697  11.8697  11.8697  11.8697
    11.9945  11.9945  11.9945  11.9946  11.9946  11.9946  11.9946  11.9946
    14.8183  14.8183  14.8183  14.8183  14.8183  14.8183  14.8183  14.8183
    14.8922  14.8922  14.8922  14.8922  14.8922  14.8922  14.8922  14.8922
    15.2662  15.2662  15.2662  15.2662  20.9994  20.9994  20.9994  20.9994
    20.9994  20.9994

     occupation numbers 
     1.0000   1.0000   1.0000   1.0000   1.0000   1.0000   1.0000   1.0000
     1.0000   1.0000   1.0000   1.0000   1.0000   1.0000   1.0000   1.0000
     1.0000   1.0000   1.0000   1.0000   1.0000   1.0000   1.0000   1.0000
     0.0000   0.0000   0.0000   0.0000   0.0000   0.0000   0.0000   0.0000
     0.0000   0.0000   0.0000   0.0000   0.0000   0.0000   0.0000   0.0000
     0.0000   0.0000   0.0000   0.0000   0.0000   0.0000   0.0000   0.0000
     0.0000   0.0000

          k = 0.0000 0.0000-1.0000 (  1830 PWs)   bands (ev):

     8.9851   8.9851   8.9851   8.9851   8.9851   8.9852  11.4311  11.4311
    11.4311  11.4311  11.4311  11.4311  12.4520  12.4520  12.4520  12.4520
    12.4520  12.4520  13.2872  13.2872  13.2872  13.2872  13.2872  13.2872
    13.2872  13.2872  13.2872  13.2873  13.2873  13.2873  14.2164  14.2164
    14.2164  14.2164  14.2164  14.2164  15.1422  15.1422  15.1422  15.1422
    15.6768  15.6768  15.6768  15.6768  15.6768  15.6768  22.3411  22.3411
    22.3411  22.3411

     occupation numbers 
     1.0000   1.0000   1.0000   1.0000   1.0000   1.0000   1.0000   1.0000
     1.0000   1.0000   1.0000   1.0000   1.0007   1.0007   1.0007   1.0007
     1.0007   1.0007   0.0000   0.0000   0.0000   0.0000   0.0000   0.0000
     0.0000   0.0000   0.0000   0.0000   0.0000   0.0000   0.0000   0.0000
     0.0000   0.0000   0.0000   0.0000   0.0000   0.0000   0.0000   0.0000
     0.0000   0.0000   0.0000   0.0000   0.0000   0.0000   0.0000   0.0000
     0.0000   0.0000

     the Fermi energy is    12.8082 ev

!    total energy              =    -446.41430227 Ry
     Harris-Foulkes estimate   =    -446.41430220 Ry
     estimated scf accuracy    <          9.6E-10 Ry

     The total energy is the sum of the following terms:

     one-electron contribution =      55.34978551 Ry
     hartree contribution      =      53.59624523 Ry
     xc contribution           =    -211.58162427 Ry
     ewald contribution        =    -343.77998637 Ry
     Hubbard energy            =       0.00000000 Ry
     smearing contrib. (-TS)   =       0.00127764 Ry

     total magnetization       =    19.54 Bohr mag/cell
     absolute magnetization    =    20.99 Bohr mag/cell

     convergence has been achieved in  18 iterations

     Writing output data file fe.save
 
     init_run     :      2.84s CPU      2.86s WALL (       1 calls)
     electrons    :     88.95s CPU     89.48s WALL (       1 calls)

     Called by init_run:
     wfcinit      :      1.08s CPU      1.09s WALL (       1 calls)
     potinit      :      0.19s CPU      0.19s WALL (       1 calls)

     Called by electrons:
     c_bands      :     57.81s CPU     58.18s WALL (      18 calls)
     sum_band     :     20.65s CPU     20.75s WALL (      18 calls)
     v_of_rho     :      2.54s CPU      2.55s WALL (      19 calls)
     v_h          :      0.06s CPU      0.07s WALL (      19 calls)
     v_xc         :      2.48s CPU      2.48s WALL (      19 calls)
     newd         :      8.01s CPU      8.03s WALL (      19 calls)
     mix_rho      :      0.26s CPU      0.27s WALL (      18 calls)

     Called by c_bands:
     init_us_2    :      0.36s CPU      0.37s WALL (     608 calls)
     cegterg      :     54.62s CPU     54.98s WALL (     288 calls)

     Called by sum_band:
     sum_band:bec :      0.13s CPU      0.15s WALL (     288 calls)
     addusdens    :     12.01s CPU     12.05s WALL (      18 calls)

     Called by *egterg:
     h_psi        :     35.88s CPU     36.17s WALL (    1040 calls)
     s_psi        :      2.69s CPU      2.75s WALL (    1056 calls)
     g_psi        :      0.23s CPU      0.27s WALL (     736 calls)
     cdiaghg      :      9.54s CPU      9.54s WALL (    1024 calls)
     cegterg:over :      2.65s CPU      2.73s WALL (     736 calls)
     cegterg:upda :      1.67s CPU      1.65s WALL (     736 calls)
     cegterg:last :      0.94s CPU      0.96s WALL (     294 calls)

     Called by h_psi:
     h_psi:vloc   :     27.61s CPU     27.86s WALL (    1040 calls)
     h_psi:vnl    :      5.79s CPU      5.75s WALL (    1040 calls)
     add_vuspsi   :      2.84s CPU      2.79s WALL (    1040 calls)
     vhpsi        :      2.40s CPU      2.48s WALL (    1040 calls)

     General routines
     calbec       :      5.35s CPU      5.37s WALL (    2672 calls)
     fft          :      1.61s CPU      1.61s WALL (     579 calls)
     ffts         :      0.04s CPU      0.04s WALL (      74 calls)
     fftw         :     27.21s CPU     27.44s WALL (   86892 calls)
     interpolate  :      0.27s CPU      0.24s WALL (      74 calls)
     davcio       :      0.00s CPU      0.01s WALL (      32 calls)
 
     Parallel routines
     fft_scatter  :      5.88s CPU      6.16s WALL (   87545 calls)
     Hubbard U routines
     new_ns       :      0.48s CPU      0.48s WALL (      18 calls)
     vhpsi        :      2.40s CPU      2.48s WALL (    1040 calls)
 
     PWSCF        :  1m32.02s CPU     1m32.60s WALL

 
   This run was terminated on:  17:41:56  30Jun2014            

=------------------------------------------------------------------------------=
   JOB DONE.
=------------------------------------------------------------------------------=
