
     Program PROJWFC v.5.0      starts on 15Jun2012 at 16:25:54 

     This program is part of the open-source Quantum ESPRESSO suite
     for quantum simulation of materials; please cite
         "P. Giannozzi et al., J. Phys.:Condens. Matter 21 395502 (2009);
          URL http://www.quantum-espresso.org", 
     in publications or presentations arising from this work. More details at
     http://www.quantum-espresso.org/quote.php

     Parallel version (MPI), running on     4 processors
     K-points division:     npool     =    4

   Info: using nr1, nr2, nr3 values from input

   Info: using nr1s, nr2s, nr3s values from input

     IMPORTANT: XC functional enforced from input :
     Exchange-correlation      =  SLA  PW   PBE  PBE ( 1 4 3 4 0)
     EXX-fraction              =        0.00
     Any further DFT definition will be discarded
     Please, verify this is what you really want

               file O.pbe-rrkjus.UPF: wavefunction(s)  2S renormalized
               file Fe.pbe-nd-rrkjus.UPF: wavefunction(s)  4S renormalized
               file Fe.pbe-nd-rrkjus.UPF: wavefunction(s)  4S renormalized
 
     G-vector sticks info
     --------------------
     sticks:   dense  smooth     PW     G-vecs:    dense   smooth      PW
     Sum        1061     539    179                17255     6111    1219
 

     Check: negative/imaginary core charge=   -0.000003    0.000000

     Gaussian broadening (read from file): ngauss,degauss=   1    0.020000


     Calling projwave .... 

     Atomic states used for projection
     (read from pseudopotential files):

     state #   1: atom   1 (O  ), wfc  1 (l=0 m= 1)
     state #   2: atom   1 (O  ), wfc  2 (l=1 m= 1)
     state #   3: atom   1 (O  ), wfc  2 (l=1 m= 2)
     state #   4: atom   1 (O  ), wfc  2 (l=1 m= 3)
     state #   5: atom   2 (O  ), wfc  1 (l=0 m= 1)
     state #   6: atom   2 (O  ), wfc  2 (l=1 m= 1)
     state #   7: atom   2 (O  ), wfc  2 (l=1 m= 2)
     state #   8: atom   2 (O  ), wfc  2 (l=1 m= 3)
     state #   9: atom   3 (Fe1), wfc  1 (l=0 m= 1)
     state #  10: atom   3 (Fe1), wfc  2 (l=2 m= 1)
     state #  11: atom   3 (Fe1), wfc  2 (l=2 m= 2)
     state #  12: atom   3 (Fe1), wfc  2 (l=2 m= 3)
     state #  13: atom   3 (Fe1), wfc  2 (l=2 m= 4)
     state #  14: atom   3 (Fe1), wfc  2 (l=2 m= 5)
     state #  15: atom   4 (Fe2), wfc  1 (l=0 m= 1)
     state #  16: atom   4 (Fe2), wfc  2 (l=2 m= 1)
     state #  17: atom   4 (Fe2), wfc  2 (l=2 m= 2)
     state #  18: atom   4 (Fe2), wfc  2 (l=2 m= 3)
     state #  19: atom   4 (Fe2), wfc  2 (l=2 m= 4)
     state #  20: atom   4 (Fe2), wfc  2 (l=2 m= 5)

 k =   0.0000000000  0.0000000000  0.0000000000
==== e(   1) =    -8.67428 eV ==== 
     psi = 0.296*[#   1]+0.296*[#   5]+0.207*[#   9]+0.200*[#  15]+
    |psi|^2 = 1.000
==== e(   2) =    -7.51626 eV ==== 
     psi = 0.496*[#   1]+0.496*[#   5]+
    |psi|^2 = 0.993
==== e(   3) =     2.36132 eV ==== 
     psi = 0.158*[#  11]+0.158*[#  12]+0.158*[#  14]+0.067*[#   2]+0.067*[#   3]+
          +0.067*[#   4]+0.067*[#   6]+0.067*[#   7]+0.067*[#   8]+0.053*[#   9]+
          +0.049*[#  15]+0.007*[#  17]+0.007*[#  18]+0.007*[#  20]+
    |psi|^2 = 0.999
==== e(   4) =     4.11880 eV ==== 
     psi = 0.298*[#  10]+0.298*[#  13]+0.043*[#  11]+0.043*[#  12]+0.043*[#  14]+
          +0.043*[#   2]+0.043*[#   3]+0.043*[#   4]+0.043*[#   6]+0.043*[#   7]+
          +0.043*[#   8]+0.008*[#  16]+0.008*[#  19]+
    |psi|^2 = 1.000
==== e(   5) =     4.11880 eV ==== 
     psi = 0.298*[#  10]+0.298*[#  13]+0.043*[#  11]+0.043*[#  12]+0.043*[#  14]+
          +0.043*[#   2]+0.043*[#   3]+0.043*[#   4]+0.043*[#   6]+0.043*[#   7]+
          +0.043*[#   8]+0.008*[#  16]+0.008*[#  19]+
    |psi|^2 = 1.000
==== e(   6) =     6.06888 eV ==== 
     psi = 0.282*[#  11]+0.282*[#  12]+0.282*[#  14]+0.068*[#  10]+0.068*[#  13]+
          +0.004*[#  17]+0.004*[#  18]+0.004*[#  20]+0.001*[#   2]+0.001*[#   3]+
          +0.001*[#   4]+0.001*[#   6]+0.001*[#   7]+0.001*[#   8]+
    |psi|^2 = 0.999
==== e(   7) =     6.06888 eV ==== 
     psi = 0.282*[#  11]+0.282*[#  12]+0.282*[#  14]+0.068*[#  10]+0.068*[#  13]+
          +0.004*[#  17]+0.004*[#  18]+0.004*[#  20]+0.001*[#   2]+0.001*[#   3]+
          +0.001*[#   4]+0.001*[#   6]+0.001*[#   7]+0.001*[#   8]+
    |psi|^2 = 0.999
==== e(   8) =     6.68023 eV ==== 
     psi = 0.174*[#  11]+0.174*[#  12]+0.174*[#  14]+0.057*[#   9]+0.056*[#   2]+
          +0.056*[#   3]+0.056*[#   4]+0.056*[#   6]+0.056*[#   7]+0.056*[#   8]+
          +0.047*[#  15]+0.013*[#  17]+0.013*[#  18]+0.013*[#  20]+
    |psi|^2 = 0.998
==== e(   9) =     8.14991 eV ==== 
     psi = 0.166*[#   2]+0.166*[#   3]+0.166*[#   4]+0.166*[#   6]+0.166*[#   7]+
          +0.166*[#   8]+
    |psi|^2 = 0.993
==== e(  10) =     8.14991 eV ==== 
     psi = 0.166*[#   2]+0.166*[#   3]+0.166*[#   4]+0.166*[#   6]+0.166*[#   7]+
          +0.166*[#   8]+
    |psi|^2 = 0.993
==== e(  11) =     8.15433 eV ==== 
     psi = 0.166*[#   2]+0.166*[#   3]+0.166*[#   4]+0.166*[#   6]+0.166*[#   7]+
          +0.166*[#   8]+
    |psi|^2 = 0.993
==== e(  12) =     8.88543 eV ==== 
     psi = 0.126*[#  10]+0.126*[#  13]+0.091*[#   2]+0.091*[#   3]+0.091*[#   4]+
          +0.091*[#   6]+0.091*[#   7]+0.091*[#   8]+0.084*[#  16]+0.084*[#  19]+
          +0.005*[#  17]+0.005*[#  18]+0.005*[#  20]+0.005*[#  11]+0.005*[#  12]+
          +0.005*[#  14]+
    |psi|^2 = 0.994
==== e(  13) =     8.88543 eV ==== 
     psi = 0.126*[#  10]+0.126*[#  13]+0.091*[#   2]+0.091*[#   3]+0.091*[#   4]+
          +0.091*[#   6]+0.091*[#   7]+0.091*[#   8]+0.084*[#  16]+0.084*[#  19]+
          +0.005*[#  17]+0.005*[#  18]+0.005*[#  20]+0.005*[#  11]+0.005*[#  12]+
          +0.005*[#  14]+
    |psi|^2 = 0.994
==== e(  14) =    10.87643 eV ==== 
     psi = 0.306*[#  17]+0.306*[#  18]+0.306*[#  20]+0.034*[#  16]+0.034*[#  19]+
          +0.003*[#  11]+0.003*[#  12]+0.003*[#  14]+
    |psi|^2 = 0.999
==== e(  15) =    10.87643 eV ==== 
     psi = 0.306*[#  17]+0.306*[#  18]+0.306*[#  20]+0.034*[#  16]+0.034*[#  19]+
          +0.003*[#  11]+0.003*[#  12]+0.003*[#  14]+
    |psi|^2 = 0.999
==== e(  16) =    11.95651 eV ==== 
     psi = 0.316*[#   9]+0.273*[#  15]+0.202*[#   1]+0.202*[#   5]+
    |psi|^2 = 0.996
==== e(  17) =    13.62378 eV ==== 
     psi = 0.312*[#  17]+0.312*[#  18]+0.312*[#  20]+0.008*[#   2]+0.008*[#   3]+
          +0.008*[#   4]+0.008*[#   6]+0.008*[#   7]+0.008*[#   8]+0.008*[#  15]+
          +0.003*[#   9]+
    |psi|^2 = 0.997
==== e(  18) =    14.29168 eV ==== 
     psi = 0.373*[#  16]+0.373*[#  19]+0.031*[#   2]+0.031*[#   3]+0.031*[#   4]+
          +0.031*[#   6]+0.031*[#   7]+0.031*[#   8]+0.017*[#  17]+0.017*[#  18]+
          +0.017*[#  20]+0.007*[#  10]+0.007*[#  13]+
    |psi|^2 = 0.994
==== e(  19) =    14.29168 eV ==== 
     psi = 0.373*[#  16]+0.373*[#  19]+0.031*[#   2]+0.031*[#   3]+0.031*[#   4]+
          +0.031*[#   6]+0.031*[#   7]+0.031*[#   8]+0.017*[#  17]+0.017*[#  18]+
          +0.017*[#  20]+0.007*[#  10]+0.007*[#  13]+
    |psi|^2 = 0.994
==== e(  20) =    15.85055 eV ==== 
     psi = 0.003*[#   1]+0.003*[#   5]+
    |psi|^2 = 0.006
==== e(  21) =    20.41974 eV ==== 
     psi = 0.415*[#  15]+0.359*[#   9]+0.036*[#   2]+0.036*[#   3]+0.036*[#   4]+
          +0.036*[#   6]+0.036*[#   7]+0.036*[#   8]+
    |psi|^2 = 0.988
==== e(  22) =    24.39316 eV ==== 
     psi = 
    |psi|^2 = 0.000
==== e(  23) =    24.39316 eV ==== 
     psi = 
    |psi|^2 = 0.000
==== e(  24) =    26.83402 eV ==== 
     psi = 
    |psi|^2 = 0.000

 k =   0.1875000000 -0.0625000000 -0.0625000000
==== e(   1) =    -8.54064 eV ==== 
     psi = 0.312*[#   1]+0.312*[#   5]+0.190*[#   9]+0.185*[#  15]+
    |psi|^2 = 1.000
==== e(   2) =    -7.55572 eV ==== 
     psi = 0.482*[#   1]+0.482*[#   5]+0.009*[#  10]+0.009*[#  13]+0.004*[#  16]+
          +0.004*[#  19]+0.002*[#   9]+
    |psi|^2 = 0.995
==== e(   3) =     2.64089 eV ==== 
     psi = 0.159*[#  11]+0.159*[#  12]+0.159*[#  14]+0.068*[#   2]+0.068*[#   3]+
          +0.068*[#   4]+0.068*[#   6]+0.068*[#   7]+0.068*[#   8]+0.047*[#  15]+
          +0.046*[#   9]+0.007*[#  17]+0.007*[#  18]+0.007*[#  20]+0.002*[#  10]+
          +0.002*[#  13]+
    |psi|^2 = 0.999
==== e(   4) =     4.08385 eV ==== 
     psi = 0.261*[#  10]+0.261*[#  13]+0.056*[#  11]+0.056*[#  12]+0.056*[#  14]+
          +0.048*[#   2]+0.048*[#   3]+0.048*[#   4]+0.048*[#   6]+0.048*[#   7]+
          +0.048*[#   8]+0.003*[#  16]+0.003*[#  19]+0.003*[#   1]+0.003*[#   5]+
          +0.001*[#  17]+0.001*[#  18]+0.001*[#  20]+
    |psi|^2 = 0.995
==== e(   5) =     4.21892 eV ==== 
     psi = 0.313*[#  10]+0.313*[#  13]+0.045*[#   2]+0.045*[#   3]+0.045*[#   4]+
          +0.045*[#   6]+0.045*[#   7]+0.045*[#   8]+0.029*[#  11]+0.029*[#  12]+
          +0.029*[#  14]+0.008*[#  16]+0.008*[#  19]+
    |psi|^2 = 1.000
==== e(   6) =     5.73357 eV ==== 
     psi = 0.222*[#  11]+0.222*[#  12]+0.222*[#  14]+0.077*[#  10]+0.077*[#  13]+
          +0.023*[#   2]+0.023*[#   3]+0.023*[#   4]+0.023*[#   6]+0.023*[#   7]+
          +0.023*[#   8]+0.008*[#   9]+0.005*[#   1]+0.005*[#   5]+0.004*[#  17]+
          +0.004*[#  18]+0.004*[#  20]+0.004*[#  16]+0.004*[#  19]+0.002*[#  15]+
    |psi|^2 = 0.998
==== e(   7) =     5.93287 eV ==== 
     psi = 0.273*[#  11]+0.273*[#  12]+0.273*[#  14]+0.045*[#  10]+0.045*[#  13]+
          +0.013*[#   2]+0.013*[#   3]+0.013*[#   4]+0.013*[#   6]+0.013*[#   7]+
          +0.013*[#   8]+0.004*[#  17]+0.004*[#  18]+0.004*[#  20]+0.001*[#  16]+
          +0.001*[#  19]+
    |psi|^2 = 0.999
==== e(   8) =     6.59660 eV ==== 
     psi = 0.165*[#  11]+0.165*[#  12]+0.165*[#  14]+0.070*[#   9]+0.061*[#   2]+
          +0.061*[#   3]+0.061*[#   4]+0.061*[#   6]+0.061*[#   7]+0.061*[#   8]+
          +0.027*[#  15]+0.011*[#  17]+0.011*[#  18]+0.011*[#  20]+0.002*[#   1]+
          +0.002*[#   5]+0.001*[#  16]+0.001*[#  19]+
    |psi|^2 = 0.997
==== e(   9) =     7.40066 eV ==== 
     psi = 0.122*[#   2]+0.122*[#   3]+0.122*[#   4]+0.122*[#   6]+0.122*[#   7]+
          +0.122*[#   8]+0.039*[#  16]+0.039*[#  19]+0.038*[#  11]+0.038*[#  12]+
          +0.038*[#  14]+0.023*[#  15]+0.010*[#   1]+0.010*[#   5]+0.008*[#   9]+
          +0.003*[#  17]+0.003*[#  18]+0.003*[#  20]+0.001*[#  10]+0.001*[#  13]+
    |psi|^2 = 0.990
==== e(  10) =     7.82923 eV ==== 
     psi = 0.133*[#   2]+0.133*[#   3]+0.133*[#   4]+0.133*[#   6]+0.133*[#   7]+
          +0.133*[#   8]+0.025*[#  10]+0.025*[#  13]+0.025*[#  15]+0.018*[#  11]+
          +0.018*[#  12]+0.018*[#  14]+0.012*[#   1]+0.012*[#   5]+0.009*[#  17]+
          +0.009*[#  18]+0.009*[#  20]+0.005*[#   9]+0.004*[#  16]+0.004*[#  19]+
    |psi|^2 = 0.992
==== e(  11) =     8.07093 eV ==== 
     psi = 0.141*[#   2]+0.141*[#   3]+0.141*[#   4]+0.141*[#   6]+0.141*[#   7]+
          +0.141*[#   8]+0.029*[#  11]+0.029*[#  12]+0.029*[#  14]+0.023*[#  16]+
          +0.023*[#  19]+0.003*[#  17]+0.003*[#  18]+0.003*[#  20]+0.002*[#  10]+
          +0.002*[#  13]+
    |psi|^2 = 0.993
==== e(  12) =     8.94251 eV ==== 
     psi = 0.132*[#  10]+0.132*[#  13]+0.098*[#   2]+0.098*[#   3]+0.098*[#   4]+
          +0.098*[#   6]+0.098*[#   7]+0.098*[#   8]+0.058*[#  16]+0.058*[#  19]+
          +0.007*[#  17]+0.007*[#  18]+0.007*[#  20]+
    |psi|^2 = 0.992
==== e(  13) =     9.07961 eV ==== 
     psi = 0.117*[#  10]+0.117*[#  13]+0.111*[#   2]+0.111*[#   3]+0.111*[#   4]+
          +0.111*[#   6]+0.111*[#   7]+0.111*[#   8]+0.009*[#  16]+0.009*[#  19]+
          +0.008*[#  15]+0.008*[#  17]+0.008*[#  18]+0.008*[#  20]+0.008*[#   1]+
          +0.008*[#   5]+0.005*[#  11]+0.005*[#  12]+0.005*[#  14]+0.003*[#   9]+
    |psi|^2 = 0.984
==== e(  14) =    10.82662 eV ==== 
     psi = 0.284*[#  17]+0.284*[#  18]+0.284*[#  20]+0.045*[#  16]+0.045*[#  19]+
          +0.005*[#   2]+0.005*[#   3]+0.005*[#   4]+0.005*[#   6]+0.005*[#   7]+
          +0.005*[#   8]+0.005*[#  15]+0.005*[#   1]+0.005*[#   5]+0.005*[#   9]+
          +0.002*[#  11]+0.002*[#  12]+0.002*[#  14]+
    |psi|^2 = 0.997
==== e(  15) =    11.02169 eV ==== 
     psi = 0.302*[#  17]+0.302*[#  18]+0.302*[#  20]+0.028*[#  16]+0.028*[#  19]+
          +0.005*[#   2]+0.005*[#   3]+0.005*[#   4]+0.005*[#   6]+0.005*[#   7]+
          +0.005*[#   8]+0.001*[#  11]+0.001*[#  12]+0.001*[#  14]+
    |psi|^2 = 0.999
==== e(  16) =    12.87384 eV ==== 
     psi = 0.294*[#   9]+0.213*[#  15]+0.147*[#   1]+0.147*[#   5]+0.022*[#   2]+
          +0.022*[#   3]+0.022*[#   4]+0.022*[#   6]+0.022*[#   7]+0.022*[#   8]+
          +0.013*[#  17]+0.013*[#  18]+0.013*[#  20]+0.009*[#  16]+0.009*[#  19]+
          +0.002*[#  10]+0.002*[#  13]+
    |psi|^2 = 0.995
==== e(  17) =    13.66283 eV ==== 
     psi = 0.304*[#  17]+0.304*[#  18]+0.304*[#  20]+0.020*[#  15]+0.009*[#   2]+
          +0.009*[#   3]+0.009*[#   4]+0.009*[#   6]+0.009*[#   7]+0.009*[#   8]+
          +0.004*[#   1]+0.004*[#   5]+
    |psi|^2 = 0.997
==== e(  18) =    14.12330 eV ==== 
     psi = 0.375*[#  16]+0.375*[#  19]+0.022*[#   2]+0.022*[#   3]+0.022*[#   4]+
          +0.022*[#   6]+0.022*[#   7]+0.022*[#   8]+0.020*[#  17]+0.020*[#  18]+
          +0.020*[#  20]+0.013*[#  15]+0.008*[#   1]+0.008*[#   5]+0.002*[#   9]+
          +0.002*[#  10]+0.002*[#  13]+
    |psi|^2 = 0.975
==== e(  19) =    14.26065 eV ==== 
     psi = 0.381*[#  16]+0.381*[#  19]+0.028*[#   2]+0.028*[#   3]+0.028*[#   4]+
          +0.028*[#   6]+0.028*[#   7]+0.028*[#   8]+0.017*[#  17]+0.017*[#  18]+
          +0.017*[#  20]+0.006*[#  10]+0.006*[#  13]+
    |psi|^2 = 0.992
==== e(  20) =    16.79414 eV ==== 
     psi = 0.012*[#   9]+0.012*[#  15]+0.005*[#   2]+0.005*[#   3]+0.005*[#   4]+
          +0.005*[#   6]+0.005*[#   7]+0.005*[#   8]+0.005*[#  16]+0.005*[#  19]+
          +0.002*[#   1]+0.002*[#   5]+
    |psi|^2 = 0.067
==== e(  21) =    20.28729 eV ==== 
     psi = 0.410*[#  15]+0.348*[#   9]+0.032*[#   2]+0.032*[#   3]+0.032*[#   4]+
          +0.032*[#   6]+0.032*[#   7]+0.032*[#   8]+
    |psi|^2 = 0.955
==== e(  22) =    23.21765 eV ==== 
     psi = 0.001*[#  15]+
    |psi|^2 = 0.009
==== e(  23) =    24.75411 eV ==== 
     psi = 
    |psi|^2 = 0.005
==== e(  24) =    25.32775 eV ==== 
     psi = 
    |psi|^2 = 0.003

 k =   0.3750000000 -0.1250000000 -0.1250000000
==== e(   1) =    -8.24711 eV ==== 
     psi = 0.358*[#   1]+0.358*[#   5]+0.135*[#  15]+0.128*[#   9]+0.009*[#  10]+
          +0.009*[#  13]+
    |psi|^2 = 0.999
==== e(   2) =    -7.58743 eV ==== 
     psi = 0.456*[#   1]+0.456*[#   5]+0.020*[#  10]+0.020*[#  13]+0.015*[#   9]+
          +0.013*[#  16]+0.013*[#  19]+0.002*[#  15]+
    |psi|^2 = 0.997
==== e(   3) =     3.18460 eV ==== 
     psi = 0.141*[#  11]+0.141*[#  12]+0.141*[#  14]+0.064*[#   2]+0.064*[#   3]+
          +0.064*[#   4]+0.064*[#   6]+0.064*[#   7]+0.064*[#   8]+0.054*[#  10]+
          +0.054*[#  13]+0.048*[#  15]+0.019*[#   9]+0.005*[#  17]+0.005*[#  18]+
          +0.005*[#  20]+
    |psi|^2 = 0.998
==== e(   4) =     4.11239 eV ==== 
     psi = 0.146*[#  11]+0.146*[#  12]+0.146*[#  14]+0.092*[#  10]+0.092*[#  13]+
          +0.059*[#   2]+0.059*[#   3]+0.059*[#   4]+0.059*[#   6]+0.059*[#   7]+
          +0.059*[#   8]+0.004*[#   1]+0.004*[#   5]+0.002*[#  17]+0.002*[#  18]+
          +0.002*[#  20]+
    |psi|^2 = 0.992
==== e(   5) =     4.38628 eV ==== 
     psi = 0.345*[#  10]+0.345*[#  13]+0.049*[#   2]+0.049*[#   3]+0.049*[#   4]+
          +0.049*[#   6]+0.049*[#   7]+0.049*[#   8]+0.005*[#  16]+0.005*[#  19]+
          +0.002*[#  11]+0.002*[#  12]+0.002*[#  14]+
    |psi|^2 = 0.999
==== e(   6) =     4.66148 eV ==== 
     psi = 0.106*[#  10]+0.106*[#  13]+0.079*[#  11]+0.079*[#  12]+0.079*[#  14]+
          +0.066*[#   2]+0.066*[#   3]+0.066*[#   4]+0.066*[#   6]+0.066*[#   7]+
          +0.066*[#   8]+0.058*[#   9]+0.015*[#   1]+0.015*[#   5]+0.015*[#  15]+
          +0.013*[#  16]+0.013*[#  19]+0.006*[#  17]+0.006*[#  18]+0.006*[#  20]+
    |psi|^2 = 0.997
==== e(   7) =     5.80354 eV ==== 
     psi = 0.261*[#  11]+0.261*[#  12]+0.261*[#  14]+0.030*[#   2]+0.030*[#   3]+
          +0.030*[#   4]+0.030*[#   6]+0.030*[#   7]+0.030*[#   8]+0.007*[#  16]+
          +0.007*[#  19]+0.004*[#  17]+0.004*[#  18]+0.004*[#  20]+0.003*[#  10]+
          +0.003*[#  13]+
    |psi|^2 = 0.999
==== e(   8) =     6.40514 eV ==== 
     psi = 0.158*[#  11]+0.158*[#  12]+0.158*[#  14]+0.068*[#   9]+0.063*[#   2]+
          +0.063*[#   3]+0.063*[#   4]+0.063*[#   6]+0.063*[#   7]+0.063*[#   8]+
          +0.014*[#  15]+0.010*[#  17]+0.010*[#  18]+0.010*[#  20]+0.007*[#  16]+
          +0.007*[#  19]+0.005*[#  10]+0.005*[#  13]+0.004*[#   1]+0.004*[#   5]+
    |psi|^2 = 0.996
==== e(   9) =     6.64878 eV ==== 
     psi = 0.121*[#   2]+0.121*[#   3]+0.121*[#   4]+0.121*[#   6]+0.121*[#   7]+
          +0.121*[#   8]+0.046*[#  10]+0.046*[#  13]+0.028*[#  17]+0.028*[#  18]+
          +0.028*[#  20]+0.013*[#  11]+0.013*[#  12]+0.013*[#  14]+0.012*[#  16]+
          +0.012*[#  19]+0.007*[#   1]+0.007*[#   5]+0.003*[#  15]+
    |psi|^2 = 0.981
==== e(  10) =     7.50209 eV ==== 
     psi = 0.115*[#  11]+0.115*[#  12]+0.115*[#  14]+0.071*[#   2]+0.071*[#   3]+
          +0.071*[#   4]+0.071*[#   6]+0.071*[#   7]+0.071*[#   8]+0.056*[#  15]+
          +0.046*[#  10]+0.046*[#  13]+0.021*[#   1]+0.021*[#   5]+0.010*[#   9]+
          +0.004*[#  16]+0.004*[#  19]+0.002*[#  17]+0.002*[#  18]+0.002*[#  20]+
    |psi|^2 = 0.985
==== e(  11) =     7.74514 eV ==== 
     psi = 0.110*[#   2]+0.110*[#   3]+0.110*[#   4]+0.110*[#   6]+0.110*[#   7]+
          +0.110*[#   8]+0.066*[#  11]+0.066*[#  12]+0.066*[#  14]+0.046*[#  16]+
          +0.046*[#  19]+0.010*[#  10]+0.010*[#  13]+0.008*[#  17]+0.008*[#  18]+
          +0.008*[#  20]+
    |psi|^2 = 0.992
==== e(  12) =     8.94855 eV ==== 
     psi = 0.115*[#  10]+0.115*[#  13]+0.109*[#   2]+0.109*[#   3]+0.109*[#   4]+
          +0.109*[#   6]+0.109*[#   7]+0.109*[#   8]+0.016*[#  15]+0.015*[#   1]+
          +0.015*[#   5]+0.011*[#  11]+0.011*[#  12]+0.011*[#  14]+0.007*[#  16]+
          +0.007*[#  19]+0.002*[#  17]+0.002*[#  18]+0.002*[#  20]+
    |psi|^2 = 0.984
==== e(  13) =     9.11920 eV ==== 
     psi = 0.137*[#  10]+0.137*[#  13]+0.106*[#   2]+0.106*[#   3]+0.106*[#   4]+
          +0.106*[#   6]+0.106*[#   7]+0.106*[#   8]+0.022*[#  16]+0.022*[#  19]+
          +0.008*[#  17]+0.008*[#  18]+0.008*[#  20]+0.003*[#  11]+0.003*[#  12]+
          +0.003*[#  14]+
    |psi|^2 = 0.987
==== e(  14) =    10.78172 eV ==== 
     psi = 0.268*[#  17]+0.268*[#  18]+0.268*[#  20]+0.039*[#  16]+0.039*[#  19]+
          +0.014*[#  15]+0.012*[#   2]+0.012*[#   3]+0.012*[#   4]+0.012*[#   6]+
          +0.012*[#   7]+0.012*[#   8]+0.008*[#   1]+0.008*[#   5]+0.005*[#   9]+
          +0.002*[#  11]+0.002*[#  12]+0.002*[#  14]+
    |psi|^2 = 0.996
==== e(  15) =    11.35505 eV ==== 
     psi = 0.295*[#  17]+0.295*[#  18]+0.295*[#  20]+0.018*[#  16]+0.018*[#  19]+
          +0.013*[#   2]+0.013*[#   3]+0.013*[#   4]+0.013*[#   6]+0.013*[#   7]+
          +0.013*[#   8]+
    |psi|^2 = 0.999
==== e(  16) =    13.58186 eV ==== 
     psi = 0.173*[#  17]+0.173*[#  18]+0.173*[#  20]+0.133*[#  16]+0.133*[#  19]+
          +0.096*[#   9]+0.028*[#   1]+0.028*[#   5]+0.018*[#  15]+0.006*[#   2]+
          +0.006*[#   3]+0.006*[#   4]+0.006*[#   6]+0.006*[#   7]+0.006*[#   8]+
    |psi|^2 = 0.994
==== e(  17) =    13.88056 eV ==== 
     psi = 0.166*[#  16]+0.166*[#  19]+0.165*[#  17]+0.165*[#  18]+0.165*[#  20]+
          +0.036*[#   9]+0.020*[#   1]+0.020*[#   5]+0.014*[#  15]+0.013*[#   2]+
          +0.013*[#   3]+0.013*[#   4]+0.013*[#   6]+0.013*[#   7]+0.013*[#   8]+
    |psi|^2 = 0.995
==== e(  18) =    14.20650 eV ==== 
     psi = 0.400*[#  16]+0.400*[#  19]+0.022*[#   2]+0.022*[#   3]+0.022*[#   4]+
          +0.022*[#   6]+0.022*[#   7]+0.022*[#   8]+0.017*[#  17]+0.017*[#  18]+
          +0.017*[#  20]+0.003*[#  10]+0.003*[#  13]+
    |psi|^2 = 0.989
==== e(  19) =    15.10816 eV ==== 
     psi = 0.208*[#  15]+0.193*[#   9]+0.099*[#  16]+0.099*[#  19]+0.058*[#   1]+
          +0.058*[#   5]+0.043*[#   2]+0.043*[#   3]+0.043*[#   4]+0.043*[#   6]+
          +0.043*[#   7]+0.043*[#   8]+0.003*[#  17]+0.003*[#  18]+0.003*[#  20]+
          +0.002*[#  10]+0.002*[#  13]+
    |psi|^2 = 0.985
==== e(  20) =    18.53853 eV ==== 
     psi = 0.036*[#   9]+0.036*[#  15]+0.006*[#   2]+0.006*[#   3]+0.006*[#   4]+
          +0.006*[#   6]+0.006*[#   7]+0.006*[#   8]+0.001*[#   1]+0.001*[#   5]+
    |psi|^2 = 0.113
==== e(  21) =    20.01496 eV ==== 
     psi = 0.404*[#  15]+0.327*[#   9]+0.025*[#   2]+0.025*[#   3]+0.025*[#   4]+
          +0.025*[#   6]+0.025*[#   7]+0.025*[#   8]+0.002*[#  16]+0.002*[#  19]+
    |psi|^2 = 0.888
==== e(  22) =    21.37134 eV ==== 
     psi = 0.003*[#   2]+0.003*[#   3]+0.003*[#   4]+0.003*[#   6]+0.003*[#   7]+
          +0.003*[#   8]+0.002*[#  15]+0.001*[#   9]+0.001*[#  16]+0.001*[#  19]+
    |psi|^2 = 0.027
==== e(  23) =    23.35609 eV ==== 
     psi = 0.005*[#  15]+0.001*[#   2]+0.001*[#   3]+0.001*[#   4]+0.001*[#   6]+
          +0.001*[#   7]+0.001*[#   8]+
    |psi|^2 = 0.015
==== e(  24) =    25.41530 eV ==== 
     psi = 0.002*[#   2]+0.002*[#   3]+0.002*[#   4]+0.002*[#   6]+0.002*[#   7]+
          +0.002*[#   8]+0.001*[#  16]+0.001*[#  19]+
    |psi|^2 = 0.014

 k =   0.5625000000 -0.1875000000 -0.1875000000
==== e(   1) =    -8.06969 eV ==== 
     psi = 0.413*[#   1]+0.413*[#   5]+0.048*[#   9]+0.043*[#  15]+0.040*[#  10]+
          +0.040*[#  13]+
    |psi|^2 = 0.999
==== e(   2) =    -7.44547 eV ==== 
     psi = 0.447*[#   1]+0.447*[#   5]+0.022*[#  16]+0.022*[#  19]+0.021*[#  15]+
          +0.020*[#   9]+0.007*[#  10]+0.007*[#  13]+
    |psi|^2 = 0.998
==== e(   3) =     3.39201 eV ==== 
     psi = 0.172*[#  11]+0.172*[#  12]+0.172*[#  14]+0.062*[#   2]+0.062*[#   3]+
          +0.062*[#   4]+0.062*[#   6]+0.062*[#   7]+0.062*[#   8]+0.040*[#   9]+
          +0.022*[#  10]+0.022*[#  13]+0.006*[#   1]+0.006*[#   5]+0.005*[#  15]+
          +0.001*[#  17]+0.001*[#  18]+0.001*[#  20]+
    |psi|^2 = 0.997
==== e(   4) =     3.53017 eV ==== 
     psi = 0.101*[#  10]+0.101*[#  13]+0.090*[#  11]+0.090*[#  12]+0.090*[#  14]+
          +0.071*[#   2]+0.071*[#   3]+0.071*[#   4]+0.071*[#   6]+0.071*[#   7]+
          +0.071*[#   8]+0.047*[#  15]+0.023*[#   9]+0.005*[#   1]+0.005*[#   5]+
          +0.004*[#  17]+0.004*[#  18]+0.004*[#  20]+0.004*[#  16]+0.004*[#  19]+
    |psi|^2 = 0.996
==== e(   5) =     4.39123 eV ==== 
     psi = 0.330*[#  10]+0.330*[#  13]+0.052*[#   2]+0.052*[#   3]+0.052*[#   4]+
          +0.052*[#   6]+0.052*[#   7]+0.052*[#   8]+0.009*[#  11]+0.009*[#  12]+
          +0.009*[#  14]+0.001*[#  16]+0.001*[#  19]+
    |psi|^2 = 0.999
==== e(   6) =     4.70862 eV ==== 
     psi = 0.093*[#  11]+0.093*[#  12]+0.093*[#  14]+0.092*[#   2]+0.092*[#   3]+
          +0.092*[#   4]+0.092*[#   6]+0.092*[#   7]+0.092*[#   8]+0.030*[#  15]+
          +0.022*[#  10]+0.022*[#  13]+0.019*[#  17]+0.019*[#  18]+0.019*[#  20]+
          +0.011*[#   9]+0.007*[#  16]+0.007*[#  19]+0.002*[#   1]+0.002*[#   5]+
    |psi|^2 = 0.988
==== e(   7) =     5.66222 eV ==== 
     psi = 0.119*[#  10]+0.119*[#  13]+0.082*[#   2]+0.082*[#   3]+0.082*[#   4]+
          +0.082*[#   6]+0.082*[#   7]+0.082*[#   8]+0.040*[#  11]+0.040*[#  12]+
          +0.040*[#  14]+0.023*[#  17]+0.023*[#  18]+0.023*[#  20]+0.018*[#  15]+
          +0.017*[#   1]+0.017*[#   5]+0.006*[#   9]+0.006*[#  16]+0.006*[#  19]+
    |psi|^2 = 0.989
==== e(   8) =     6.07070 eV ==== 
     psi = 0.221*[#  11]+0.221*[#  12]+0.221*[#  14]+0.044*[#   2]+0.044*[#   3]+
          +0.044*[#   4]+0.044*[#   6]+0.044*[#   7]+0.044*[#   8]+0.016*[#  16]+
          +0.016*[#  19]+0.012*[#  10]+0.012*[#  13]+0.005*[#  17]+0.005*[#  18]+
          +0.005*[#  20]+
    |psi|^2 = 0.998
==== e(   9) =     6.27861 eV ==== 
     psi = 0.113*[#  11]+0.113*[#  12]+0.113*[#  14]+0.084*[#   2]+0.084*[#   3]+
          +0.084*[#   4]+0.084*[#   6]+0.084*[#   7]+0.084*[#   8]+0.044*[#   9]+
          +0.016*[#  10]+0.016*[#  13]+0.013*[#  16]+0.013*[#  19]+0.009*[#  17]+
          +0.009*[#  18]+0.009*[#  20]+0.005*[#   1]+0.005*[#   5]+0.005*[#  15]+
    |psi|^2 = 0.985
==== e(  10) =     7.22227 eV ==== 
     psi = 0.093*[#   2]+0.093*[#   3]+0.093*[#   4]+0.093*[#   6]+0.093*[#   7]+
          +0.093*[#   8]+0.092*[#  11]+0.092*[#  12]+0.092*[#  14]+0.046*[#  16]+
          +0.046*[#  19]+0.018*[#  10]+0.018*[#  13]+0.011*[#  17]+0.011*[#  18]+
          +0.011*[#  20]+
    |psi|^2 = 0.993
==== e(  11) =     7.65704 eV ==== 
     psi = 0.148*[#  11]+0.148*[#  12]+0.148*[#  14]+0.073*[#   2]+0.073*[#   3]+
          +0.073*[#   4]+0.073*[#   6]+0.073*[#   7]+0.073*[#   8]+0.034*[#   9]+
          +0.018*[#  10]+0.018*[#  13]+0.010*[#  15]+0.008*[#   1]+0.008*[#   5]+
    |psi|^2 = 0.978
==== e(  12) =     8.81189 eV ==== 
     psi = 0.148*[#  10]+0.148*[#  13]+0.094*[#   2]+0.094*[#   3]+0.094*[#   4]+
          +0.094*[#   6]+0.094*[#   7]+0.094*[#   8]+0.024*[#  15]+0.023*[#   1]+
          +0.023*[#   5]+0.013*[#  16]+0.013*[#  19]+0.008*[#  11]+0.008*[#  12]+
          +0.008*[#  14]+0.002*[#   9]+
    |psi|^2 = 0.982
==== e(  13) =     9.30869 eV ==== 
     psi = 0.137*[#  10]+0.137*[#  13]+0.109*[#   2]+0.109*[#   3]+0.109*[#   4]+
          +0.109*[#   6]+0.109*[#   7]+0.109*[#   8]+0.011*[#  11]+0.011*[#  12]+
          +0.011*[#  14]+0.005*[#  16]+0.005*[#  19]+0.003*[#  17]+0.003*[#  18]+
          +0.003*[#  20]+
    |psi|^2 = 0.983
==== e(  14) =    10.73800 eV ==== 
     psi = 0.268*[#  17]+0.268*[#  18]+0.268*[#  20]+0.030*[#  16]+0.030*[#  19]+
          +0.017*[#  15]+0.016*[#   2]+0.016*[#   3]+0.016*[#   4]+0.016*[#   6]+
          +0.016*[#   7]+0.016*[#   8]+0.006*[#   1]+0.006*[#   5]+0.001*[#   9]+
    |psi|^2 = 0.995
==== e(  15) =    11.64897 eV ==== 
     psi = 0.295*[#  17]+0.295*[#  18]+0.295*[#  20]+0.015*[#   2]+0.015*[#   3]+
          +0.015*[#   4]+0.015*[#   6]+0.015*[#   7]+0.015*[#   8]+0.013*[#  16]+
          +0.013*[#  19]+
    |psi|^2 = 0.998
==== e(  16) =    13.84982 eV ==== 
     psi = 0.295*[#  17]+0.295*[#  18]+0.295*[#  20]+0.026*[#  16]+0.026*[#  19]+
          +0.012*[#   9]+0.007*[#   2]+0.007*[#   3]+0.007*[#   4]+0.007*[#   6]+
          +0.007*[#   7]+0.007*[#   8]+0.003*[#   1]+0.003*[#   5]+0.002*[#  15]+
    |psi|^2 = 0.995
==== e(  17) =    14.06115 eV ==== 
     psi = 0.346*[#  16]+0.346*[#  19]+0.048*[#   9]+0.044*[#  17]+0.044*[#  18]+
          +0.044*[#  20]+0.028*[#   1]+0.028*[#   5]+0.010*[#   2]+0.010*[#   3]+
          +0.010*[#   4]+0.010*[#   6]+0.010*[#   7]+0.010*[#   8]+0.002*[#  15]+
    |psi|^2 = 0.991
==== e(  18) =    14.17316 eV ==== 
     psi = 0.416*[#  16]+0.416*[#  19]+0.018*[#  17]+0.018*[#  18]+0.018*[#  20]+
          +0.016*[#   2]+0.016*[#   3]+0.016*[#   4]+0.016*[#   6]+0.016*[#   7]+
          +0.016*[#   8]+0.001*[#  10]+0.001*[#  13]+
    |psi|^2 = 0.988
==== e(  19) =    16.70570 eV ==== 
     psi = 0.336*[#   9]+0.245*[#  15]+0.039*[#   2]+0.039*[#   3]+0.039*[#   4]+
          +0.039*[#   6]+0.039*[#   7]+0.039*[#   8]+0.030*[#   1]+0.030*[#   5]+
          +0.029*[#  16]+0.029*[#  19]+0.001*[#  10]+0.001*[#  13]+
    |psi|^2 = 0.935
==== e(  20) =    19.26567 eV ==== 
     psi = 0.149*[#  15]+0.108*[#   9]+0.005*[#   2]+0.005*[#   3]+0.005*[#   4]+
          +0.005*[#   6]+0.005*[#   7]+0.005*[#   8]+0.002*[#   1]+0.002*[#   5]+
          +0.001*[#  10]+0.001*[#  13]+0.001*[#  16]+0.001*[#  19]+
    |psi|^2 = 0.297
==== e(  21) =    19.83182 eV ==== 
     psi = 0.303*[#  15]+0.253*[#   9]+0.019*[#   2]+0.019*[#   3]+0.019*[#   4]+
          +0.019*[#   6]+0.019*[#   7]+0.019*[#   8]+0.001*[#  16]+0.001*[#  19]+
    |psi|^2 = 0.673
==== e(  22) =    20.82084 eV ==== 
     psi = 0.005*[#   2]+0.005*[#   3]+0.005*[#   4]+0.005*[#   6]+0.005*[#   7]+
          +0.005*[#   8]+0.002*[#   9]+
    |psi|^2 = 0.035
==== e(  23) =    21.65514 eV ==== 
     psi = 0.067*[#  15]+0.005*[#   2]+0.005*[#   3]+0.005*[#   4]+0.005*[#   6]+
          +0.005*[#   7]+0.005*[#   8]+0.002*[#   9]+0.002*[#   1]+0.002*[#   5]+
    |psi|^2 = 0.101
==== e(  24) =    23.34564 eV ==== 
     psi = 
    |psi|^2 = 0.005

 k =  -0.7500000000  0.2500000000  0.2500000000
==== e(   1) =    -8.03738 eV ==== 
     psi = 0.430*[#   1]+0.430*[#   5]+0.055*[#  10]+0.055*[#  13]+0.027*[#   9]+
    |psi|^2 = 0.998
==== e(   2) =    -7.32551 eV ==== 
     psi = 0.458*[#   1]+0.458*[#   5]+0.026*[#  15]+0.026*[#  16]+0.026*[#  19]+
    |psi|^2 = 0.997
==== e(   3) =     3.03453 eV ==== 
     psi = 0.160*[#  11]+0.160*[#  12]+0.160*[#  14]+0.075*[#   9]+0.073*[#   2]+
          +0.073*[#   3]+0.073*[#   4]+0.073*[#   6]+0.073*[#   7]+0.073*[#   8]+
          +0.002*[#  10]+0.002*[#  13]+0.002*[#   1]+0.002*[#   5]+
    |psi|^2 = 0.999
==== e(   4) =     3.75588 eV ==== 
     psi = 0.136*[#  10]+0.136*[#  13]+0.120*[#  11]+0.120*[#  12]+0.120*[#  14]+
          +0.056*[#   2]+0.056*[#   3]+0.056*[#   4]+0.056*[#   6]+0.056*[#   7]+
          +0.056*[#   8]+0.010*[#   1]+0.010*[#   5]+0.006*[#   9]+
    |psi|^2 = 0.991
==== e(   5) =     4.34961 eV ==== 
     psi = 0.314*[#  10]+0.314*[#  13]+0.053*[#   2]+0.053*[#   3]+0.053*[#   4]+
          +0.053*[#   6]+0.053*[#   7]+0.053*[#   8]+0.018*[#  11]+0.018*[#  12]+
          +0.018*[#  14]+
    |psi|^2 = 0.999
==== e(   6) =     4.40569 eV ==== 
     psi = 0.123*[#   2]+0.123*[#   3]+0.123*[#   4]+0.123*[#   6]+0.123*[#   7]+
          +0.123*[#   8]+0.115*[#  15]+0.041*[#  17]+0.041*[#  18]+0.041*[#  20]+
          +0.006*[#  16]+0.006*[#  19]+0.002*[#   1]+0.002*[#   5]+
    |psi|^2 = 0.992
==== e(   7) =     5.68938 eV ==== 
     psi = 0.203*[#  11]+0.203*[#  12]+0.203*[#  14]+0.130*[#  10]+0.130*[#  13]+
          +0.019*[#   1]+0.019*[#   5]+0.014*[#   2]+0.014*[#   3]+0.014*[#   4]+
          +0.014*[#   6]+0.014*[#   7]+0.014*[#   8]+
    |psi|^2 = 0.991
==== e(   8) =     6.20402 eV ==== 
     psi = 0.143*[#   2]+0.143*[#   3]+0.143*[#   4]+0.143*[#   6]+0.143*[#   7]+
          +0.143*[#   8]+0.032*[#  16]+0.032*[#  19]+0.016*[#  17]+0.016*[#  18]+
          +0.016*[#  20]+0.001*[#  15]+
    |psi|^2 = 0.971
==== e(   9) =     6.55028 eV ==== 
     psi = 0.301*[#  11]+0.301*[#  12]+0.301*[#  14]+0.048*[#  10]+0.048*[#  13]+
    |psi|^2 = 0.999
==== e(  10) =     6.69465 eV ==== 
     psi = 0.135*[#   2]+0.135*[#   3]+0.135*[#   4]+0.135*[#   6]+0.135*[#   7]+
          +0.135*[#   8]+0.063*[#  16]+0.063*[#  19]+0.017*[#  17]+0.017*[#  18]+
          +0.017*[#  20]+
    |psi|^2 = 0.991
==== e(  11) =     7.58720 eV ==== 
     psi = 0.173*[#  11]+0.173*[#  12]+0.173*[#  14]+0.078*[#   9]+0.063*[#   2]+
          +0.063*[#   3]+0.063*[#   4]+0.063*[#   6]+0.063*[#   7]+0.063*[#   8]+
          +0.005*[#  10]+0.005*[#  13]+0.003*[#   1]+0.003*[#   5]+
    |psi|^2 = 0.991
==== e(  12) =     8.88504 eV ==== 
     psi = 0.168*[#  10]+0.168*[#  13]+0.093*[#   2]+0.093*[#   3]+0.093*[#   4]+
          +0.093*[#   6]+0.093*[#   7]+0.093*[#   8]+0.023*[#   1]+0.023*[#   5]+
          +0.008*[#  11]+0.008*[#  12]+0.008*[#  14]+0.001*[#   9]+
    |psi|^2 = 0.968
==== e(  13) =     9.38926 eV ==== 
     psi = 0.136*[#  10]+0.136*[#  13]+0.111*[#   2]+0.111*[#   3]+0.111*[#   4]+
          +0.111*[#   6]+0.111*[#   7]+0.111*[#   8]+0.014*[#  11]+0.014*[#  12]+
          +0.014*[#  14]+
    |psi|^2 = 0.980
==== e(  14) =    10.71535 eV ==== 
     psi = 0.268*[#  17]+0.268*[#  18]+0.268*[#  20]+0.028*[#  16]+0.028*[#  19]+
          +0.018*[#   2]+0.018*[#   3]+0.018*[#   4]+0.018*[#   6]+0.018*[#   7]+
          +0.018*[#   8]+0.017*[#  15]+0.005*[#   1]+0.005*[#   5]+
    |psi|^2 = 0.995
==== e(  15) =    11.75630 eV ==== 
     psi = 0.297*[#  17]+0.297*[#  18]+0.297*[#  20]+0.014*[#   2]+0.014*[#   3]+
          +0.014*[#   4]+0.014*[#   6]+0.014*[#   7]+0.014*[#   8]+0.011*[#  16]+
          +0.011*[#  19]+
    |psi|^2 = 0.997
==== e(  16) =    13.92965 eV ==== 
     psi = 0.321*[#  17]+0.321*[#  18]+0.321*[#  20]+0.005*[#   2]+0.005*[#   3]+
          +0.005*[#   4]+0.005*[#   6]+0.005*[#   7]+0.005*[#   8]+0.001*[#  15]+
          +0.002*[#  16]+0.002*[#  19]+
    |psi|^2 = 0.996
==== e(  17) =    14.16523 eV ==== 
     psi = 0.423*[#  16]+0.423*[#  19]+0.019*[#  17]+0.019*[#  18]+0.019*[#  20]+
          +0.014*[#   2]+0.014*[#   3]+0.014*[#   4]+0.014*[#   6]+0.014*[#   7]+
          +0.014*[#   8]+
    |psi|^2 = 0.988
==== e(  18) =    14.23139 eV ==== 
     psi = 0.400*[#  16]+0.400*[#  19]+0.026*[#   1]+0.026*[#   5]+0.017*[#  17]+
          +0.017*[#  18]+0.017*[#  20]+0.013*[#   2]+0.013*[#   3]+0.013*[#   4]+
          +0.013*[#   6]+0.013*[#   7]+0.013*[#   8]+
    |psi|^2 = 0.979
==== e(  19) =    17.77380 eV ==== 
     psi = 0.638*[#   9]+0.021*[#   2]+0.021*[#   3]+0.021*[#   4]+0.021*[#   6]+
          +0.021*[#   7]+0.021*[#   8]+0.010*[#   1]+0.010*[#   5]+
    |psi|^2 = 0.787
==== e(  20) =    18.23975 eV ==== 
     psi = 0.495*[#  15]+0.016*[#   2]+0.016*[#   3]+0.016*[#   4]+0.016*[#   6]+
          +0.016*[#   7]+0.016*[#   8]+0.006*[#   1]+0.006*[#   5]+0.004*[#  16]+
          +0.004*[#  19]+
    |psi|^2 = 0.614
==== e(  21) =    20.11394 eV ==== 
     psi = 0.151*[#   9]+0.009*[#   2]+0.009*[#   3]+0.009*[#   4]+0.009*[#   6]+
          +0.009*[#   7]+0.009*[#   8]+
    |psi|^2 = 0.206
==== e(  22) =    20.63333 eV ==== 
     psi = 0.317*[#  15]+0.010*[#   2]+0.010*[#   3]+0.010*[#   4]+0.010*[#   6]+
          +0.010*[#   7]+0.010*[#   8]+0.003*[#   1]+0.003*[#   5]+
    |psi|^2 = 0.387
==== e(  23) =    21.88829 eV ==== 
     psi = 0.014*[#  15]+0.003*[#   2]+0.003*[#   3]+0.003*[#   4]+0.003*[#   6]+
          +0.003*[#   7]+0.003*[#   8]+0.001*[#  16]+
    |psi|^2 = 0.038
==== e(  24) =    22.06633 eV ==== 
     psi = 0.012*[#   9]+0.003*[#   2]+0.003*[#   3]+0.003*[#   4]+0.003*[#   6]+
          +0.003*[#   7]+0.003*[#   8]+
    |psi|^2 = 0.032

 k =   0.1250000000  0.1250000000 -0.1250000000
==== e(   1) =    -8.52661 eV ==== 
     psi = 0.313*[#   1]+0.313*[#   5]+0.189*[#   9]+0.183*[#  15]+
    |psi|^2 = 1.000
==== e(   2) =    -7.57537 eV ==== 
     psi = 0.477*[#   1]+0.477*[#   5]+0.009*[#  10]+0.009*[#  13]+0.007*[#  15]+
          +0.006*[#   9]+0.004*[#  16]+0.004*[#  19]+
    |psi|^2 = 0.995
==== e(   3) =     2.68605 eV ==== 
     psi = 0.161*[#  11]+0.161*[#  12]+0.161*[#  14]+0.067*[#   2]+0.067*[#   3]+
          +0.067*[#   4]+0.067*[#   6]+0.067*[#   7]+0.067*[#   8]+0.046*[#   9]+
          +0.045*[#  15]+0.006*[#  17]+0.006*[#  18]+0.006*[#  20]+0.001*[#   1]+
          +0.001*[#   5]+
    |psi|^2 = 0.999
==== e(   4) =     4.07090 eV ==== 
     psi = 0.263*[#  10]+0.263*[#  13]+0.055*[#  11]+0.055*[#  12]+0.055*[#  14]+
          +0.048*[#   2]+0.048*[#   3]+0.048*[#   4]+0.048*[#   6]+0.048*[#   7]+
          +0.048*[#   8]+0.004*[#  16]+0.004*[#  19]+0.003*[#   1]+0.003*[#   5]+
          +0.001*[#  15]+
    |psi|^2 = 0.995
==== e(   5) =     4.23398 eV ==== 
     psi = 0.315*[#  10]+0.315*[#  13]+0.044*[#   2]+0.044*[#   3]+0.044*[#   4]+
          +0.044*[#   6]+0.044*[#   7]+0.044*[#   8]+0.030*[#  11]+0.030*[#  12]+
          +0.030*[#  14]+0.005*[#  16]+0.005*[#  19]+0.001*[#  17]+0.001*[#  18]+
          +0.001*[#  20]+
    |psi|^2 = 1.000
==== e(   6) =     5.72182 eV ==== 
     psi = 0.221*[#  11]+0.221*[#  12]+0.221*[#  14]+0.071*[#  10]+0.071*[#  13]+
          +0.025*[#   2]+0.025*[#   3]+0.025*[#   4]+0.025*[#   6]+0.025*[#   7]+
          +0.025*[#   8]+0.010*[#   9]+0.006*[#  17]+0.006*[#  18]+0.006*[#  20]+
          +0.006*[#   1]+0.006*[#   5]+0.001*[#  15]+
    |psi|^2 = 0.998
==== e(   7) =     5.93063 eV ==== 
     psi = 0.269*[#  11]+0.269*[#  12]+0.269*[#  14]+0.048*[#  10]+0.048*[#  13]+
          +0.013*[#   2]+0.013*[#   3]+0.013*[#   4]+0.013*[#   6]+0.013*[#   7]+
          +0.013*[#   8]+0.004*[#  17]+0.004*[#  18]+0.004*[#  20]+0.003*[#  16]+
          +0.003*[#  19]+
    |psi|^2 = 0.999
==== e(   8) =     6.59892 eV ==== 
     psi = 0.163*[#  11]+0.163*[#  12]+0.163*[#  14]+0.063*[#   9]+0.060*[#   2]+
          +0.060*[#   3]+0.060*[#   4]+0.060*[#   6]+0.060*[#   7]+0.060*[#   8]+
          +0.029*[#  15]+0.011*[#  17]+0.011*[#  18]+0.011*[#  20]+0.007*[#  10]+
          +0.007*[#  13]+0.003*[#   1]+0.003*[#   5]+
    |psi|^2 = 0.996
==== e(   9) =     7.39531 eV ==== 
     psi = 0.125*[#   2]+0.125*[#   3]+0.125*[#   4]+0.125*[#   6]+0.125*[#   7]+
          +0.125*[#   8]+0.031*[#  15]+0.022*[#  10]+0.022*[#  13]+0.021*[#  11]+
          +0.021*[#  12]+0.021*[#  14]+0.018*[#   9]+0.018*[#   1]+0.018*[#   5]+
          +0.014*[#  16]+0.014*[#  19]+0.009*[#  17]+0.009*[#  18]+0.009*[#  20]+
    |psi|^2 = 0.992
==== e(  10) =     7.74162 eV ==== 
     psi = 0.126*[#   2]+0.126*[#   3]+0.126*[#   4]+0.126*[#   6]+0.126*[#   7]+
          +0.126*[#   8]+0.037*[#  11]+0.037*[#  12]+0.037*[#  14]+0.034*[#  16]+
          +0.034*[#  19]+0.022*[#  15]+0.007*[#   1]+0.007*[#   5]+0.007*[#  10]+
          +0.007*[#  13]+0.003*[#   9]+
    |psi|^2 = 0.991
==== e(  11) =     7.87337 eV ==== 
     psi = 0.132*[#   2]+0.132*[#   3]+0.132*[#   4]+0.132*[#   6]+0.132*[#   7]+
          +0.132*[#   8]+0.049*[#  16]+0.049*[#  19]+0.032*[#  11]+0.032*[#  12]+
          +0.032*[#  14]+0.005*[#  10]+0.005*[#  13]+
    |psi|^2 = 0.994
==== e(  12) =     9.13889 eV ==== 
     psi = 0.117*[#  10]+0.117*[#  13]+0.115*[#   2]+0.115*[#   3]+0.115*[#   4]+
          +0.115*[#   6]+0.115*[#   7]+0.115*[#   8]+0.013*[#  16]+0.013*[#  19]+
          +0.005*[#  17]+0.005*[#  18]+0.005*[#  20]+0.004*[#  11]+0.004*[#  12]+
          +0.004*[#  14]+0.003*[#   1]+0.003*[#   5]+
    |psi|^2 = 0.985
==== e(  13) =     9.17273 eV ==== 
     psi = 0.126*[#  10]+0.126*[#  13]+0.109*[#   2]+0.109*[#   3]+0.109*[#   4]+
          +0.109*[#   6]+0.109*[#   7]+0.109*[#   8]+0.020*[#  16]+0.020*[#  19]+
          +0.014*[#  17]+0.014*[#  18]+0.014*[#  20]+
    |psi|^2 = 0.990
==== e(  14) =    10.80566 eV ==== 
     psi = 0.291*[#  17]+0.291*[#  18]+0.291*[#  20]+0.040*[#  16]+0.040*[#  19]+
          +0.005*[#  15]+0.004*[#   2]+0.004*[#   3]+0.004*[#   4]+0.004*[#   6]+
          +0.004*[#   7]+0.004*[#   8]+0.003*[#   1]+0.003*[#   5]+0.003*[#   9]+
          +0.001*[#  11]+0.001*[#  12]+0.001*[#  14]+
    |psi|^2 = 0.997
==== e(  15) =    11.02832 eV ==== 
     psi = 0.296*[#  17]+0.296*[#  18]+0.296*[#  20]+0.033*[#  16]+0.033*[#  19]+
          +0.006*[#   2]+0.006*[#   3]+0.006*[#   4]+0.006*[#   6]+0.006*[#   7]+
          +0.006*[#   8]+0.002*[#  11]+0.002*[#  12]+0.002*[#  14]+
    |psi|^2 = 0.999
==== e(  16) =    12.93635 eV ==== 
     psi = 0.299*[#   9]+0.226*[#  15]+0.149*[#   1]+0.149*[#   5]+0.023*[#   2]+
          +0.023*[#   3]+0.023*[#   4]+0.023*[#   6]+0.023*[#   7]+0.023*[#   8]+
          +0.009*[#  17]+0.009*[#  18]+0.009*[#  20]+0.001*[#  16]+0.001*[#  19]+
    |psi|^2 = 0.994
==== e(  17) =    13.64831 eV ==== 
     psi = 0.304*[#  17]+0.304*[#  18]+0.304*[#  20]+0.021*[#  15]+0.009*[#   2]+
          +0.009*[#   3]+0.009*[#   4]+0.009*[#   6]+0.009*[#   7]+0.009*[#   8]+
          +0.004*[#   1]+0.004*[#   5]+
    |psi|^2 = 0.996
==== e(  18) =    14.13044 eV ==== 
     psi = 0.380*[#  16]+0.380*[#  19]+0.021*[#   2]+0.021*[#   3]+0.021*[#   4]+
          +0.021*[#   6]+0.021*[#   7]+0.021*[#   8]+0.021*[#  17]+0.021*[#  18]+
          +0.021*[#  20]+0.006*[#   1]+0.006*[#   5]+0.003*[#  10]+0.003*[#  13]+
          +0.001*[#  15]+
    |psi|^2 = 0.973
==== e(  19) =    14.18642 eV ==== 
     psi = 0.387*[#  16]+0.387*[#  19]+0.026*[#   2]+0.026*[#   3]+0.026*[#   4]+
          +0.026*[#   6]+0.026*[#   7]+0.026*[#   8]+0.018*[#  17]+0.018*[#  18]+
          +0.018*[#  20]+0.004*[#  10]+0.004*[#  13]+
    |psi|^2 = 0.991
==== e(  20) =    16.78695 eV ==== 
     psi = 0.061*[#  15]+0.055*[#   9]+0.009*[#   2]+0.009*[#   3]+0.009*[#   4]+
          +0.009*[#   6]+0.009*[#   7]+0.009*[#   8]+0.006*[#  16]+0.006*[#  19]+
          +0.003*[#   1]+0.003*[#   5]+
    |psi|^2 = 0.188
==== e(  21) =    20.31705 eV ==== 
     psi = 0.358*[#  15]+0.301*[#   9]+0.029*[#   2]+0.029*[#   3]+0.029*[#   4]+
          +0.029*[#   6]+0.029*[#   7]+0.029*[#   8]+0.002*[#   1]+0.002*[#   5]+
    |psi|^2 = 0.840
==== e(  22) =    23.30606 eV ==== 
     psi = 
    |psi|^2 = 0.005
==== e(  23) =    24.78124 eV ==== 
     psi = 
    |psi|^2 = 0.007
==== e(  24) =    25.02235 eV ==== 
     psi = 
    |psi|^2 = 0.004

 k =   0.3125000000  0.0625000000 -0.1875000000
==== e(   1) =    -8.29465 eV ==== 
     psi = 0.345*[#   1]+0.345*[#   5]+0.153*[#  15]+0.148*[#   9]+0.002*[#  10]+
          +0.002*[#  13]+
    |psi|^2 = 1.000
==== e(   2) =    -7.63094 eV ==== 
     psi = 0.457*[#   1]+0.457*[#   5]+0.021*[#  10]+0.021*[#  13]+0.014*[#   9]+
          +0.010*[#  16]+0.010*[#  19]+0.004*[#  15]+
    |psi|^2 = 0.997
==== e(   3) =     3.14199 eV ==== 
     psi = 0.153*[#  11]+0.153*[#  12]+0.153*[#  14]+0.067*[#   2]+0.067*[#   3]+
          +0.067*[#   4]+0.067*[#   6]+0.067*[#   7]+0.067*[#   8]+0.047*[#  15]+
          +0.028*[#   9]+0.023*[#  10]+0.023*[#  13]+0.005*[#  17]+0.005*[#  18]+
          +0.005*[#  20]+
    |psi|^2 = 0.999
==== e(   4) =     4.02700 eV ==== 
     psi = 0.192*[#  10]+0.192*[#  13]+0.092*[#  11]+0.092*[#  12]+0.092*[#  14]+
          +0.052*[#   2]+0.052*[#   3]+0.052*[#   4]+0.052*[#   6]+0.052*[#   7]+
          +0.052*[#   8]+0.006*[#   1]+0.006*[#   5]+0.003*[#  15]+0.002*[#  17]+
          +0.002*[#  18]+0.002*[#  20]+
    |psi|^2 = 0.993
==== e(   5) =     4.35493 eV ==== 
     psi = 0.322*[#  10]+0.322*[#  13]+0.051*[#   2]+0.051*[#   3]+0.051*[#   4]+
          +0.051*[#   6]+0.051*[#   7]+0.051*[#   8]+0.009*[#  11]+0.009*[#  12]+
          +0.009*[#  14]+0.007*[#   9]+0.004*[#  16]+0.004*[#  19]+0.002*[#  17]+
          +0.002*[#  18]+0.002*[#  20]+0.002*[#  15]+
    |psi|^2 = 0.999
==== e(   6) =     5.22684 eV ==== 
     psi = 0.158*[#  11]+0.158*[#  12]+0.158*[#  14]+0.065*[#   2]+0.065*[#   3]+
          +0.065*[#   4]+0.065*[#   6]+0.065*[#   7]+0.065*[#   8]+0.051*[#   9]+
          +0.016*[#   1]+0.016*[#   5]+0.013*[#  16]+0.013*[#  19]+0.007*[#  15]+
          +0.007*[#  17]+0.007*[#  18]+0.007*[#  20]+
    |psi|^2 = 0.998
==== e(   7) =     5.40015 eV ==== 
     psi = 0.184*[#  11]+0.184*[#  12]+0.184*[#  14]+0.111*[#  10]+0.111*[#  13]+
          +0.031*[#   2]+0.031*[#   3]+0.031*[#   4]+0.031*[#   6]+0.031*[#   7]+
          +0.031*[#   8]+0.006*[#  16]+0.006*[#  19]+0.005*[#   1]+0.005*[#   5]+
          +0.005*[#  17]+0.005*[#  18]+0.005*[#  20]+
    |psi|^2 = 0.998
==== e(   8) =     6.50944 eV ==== 
     psi = 0.188*[#  11]+0.188*[#  12]+0.188*[#  14]+0.057*[#   9]+0.051*[#   2]+
          +0.051*[#   3]+0.051*[#   4]+0.051*[#   6]+0.051*[#   7]+0.051*[#   8]+
          +0.012*[#  15]+0.010*[#  10]+0.010*[#  13]+0.009*[#  17]+0.009*[#  18]+
          +0.009*[#  20]+0.004*[#   1]+0.004*[#   5]+0.004*[#  16]+0.004*[#  19]+
    |psi|^2 = 0.996
==== e(   9) =     6.92033 eV ==== 
     psi = 0.122*[#   2]+0.122*[#   3]+0.122*[#   4]+0.122*[#   6]+0.122*[#   7]+
          +0.122*[#   8]+0.039*[#  11]+0.039*[#  12]+0.039*[#  14]+0.024*[#  16]+
          +0.024*[#  19]+0.019*[#  17]+0.019*[#  18]+0.019*[#  20]+0.010*[#  15]+
          +0.007*[#  10]+0.007*[#  13]+0.001*[#   1]+0.001*[#   5]+
    |psi|^2 = 0.983
==== e(  10) =     7.39117 eV ==== 
     psi = 0.114*[#  11]+0.114*[#  12]+0.114*[#  14]+0.081*[#   2]+0.081*[#   3]+
          +0.081*[#   4]+0.081*[#   6]+0.081*[#   7]+0.081*[#   8]+0.050*[#  15]+
          +0.019*[#  16]+0.019*[#  19]+0.018*[#  10]+0.018*[#  13]+0.014*[#   1]+
          +0.014*[#   5]+0.007*[#   9]+0.003*[#  17]+0.003*[#  18]+0.003*[#  20]+
    |psi|^2 = 0.991
==== e(  11) =     8.02331 eV ==== 
     psi = 0.123*[#   2]+0.123*[#   3]+0.123*[#   4]+0.123*[#   6]+0.123*[#   7]+
          +0.123*[#   8]+0.054*[#  11]+0.054*[#  12]+0.054*[#  14]+0.020*[#  16]+
          +0.020*[#  19]+0.010*[#  10]+0.010*[#  13]+0.008*[#  17]+0.008*[#  18]+
          +0.008*[#  20]+0.002*[#  15]+0.001*[#   1]+0.001*[#   5]+
    |psi|^2 = 0.989
==== e(  12) =     8.80618 eV ==== 
     psi = 0.146*[#  10]+0.146*[#  13]+0.090*[#   2]+0.090*[#   3]+0.090*[#   4]+
          +0.090*[#   6]+0.090*[#   7]+0.090*[#   8]+0.031*[#  16]+0.031*[#  19]+
          +0.019*[#  15]+0.016*[#  17]+0.016*[#  18]+0.016*[#  20]+0.012*[#   1]+
          +0.012*[#   5]+0.002*[#   9]+
    |psi|^2 = 0.988
==== e(  13) =     9.19203 eV ==== 
     psi = 0.124*[#  10]+0.124*[#  13]+0.111*[#   2]+0.111*[#   3]+0.111*[#   4]+
          +0.111*[#   6]+0.111*[#   7]+0.111*[#   8]+0.011*[#  16]+0.011*[#  19]+
          +0.007*[#   1]+0.007*[#   5]+0.007*[#  17]+0.007*[#  18]+0.007*[#  20]+
          +0.005*[#  11]+0.005*[#  12]+0.005*[#  14]+
    |psi|^2 = 0.984
==== e(  14) =    10.96833 eV ==== 
     psi = 0.261*[#  17]+0.261*[#  18]+0.261*[#  20]+0.027*[#  16]+0.027*[#  19]+
          +0.025*[#   2]+0.025*[#   3]+0.025*[#   4]+0.025*[#   6]+0.025*[#   7]+
          +0.025*[#   8]+0.004*[#  10]+0.004*[#  13]+
    |psi|^2 = 0.997
==== e(  15) =    11.15444 eV ==== 
     psi = 0.299*[#  17]+0.299*[#  18]+0.299*[#  20]+0.027*[#  16]+0.027*[#  19]+
          +0.007*[#  15]+0.006*[#   9]+0.004*[#   2]+0.004*[#   3]+0.004*[#   4]+
          +0.004*[#   6]+0.004*[#   7]+0.004*[#   8]+0.003*[#   1]+0.003*[#   5]+
    |psi|^2 = 0.998
==== e(  16) =    13.53859 eV ==== 
     psi = 0.178*[#  17]+0.178*[#  18]+0.178*[#  20]+0.113*[#   9]+0.103*[#  16]+
          +0.103*[#  19]+0.032*[#   1]+0.032*[#   5]+0.026*[#  15]+0.008*[#   2]+
          +0.008*[#   3]+0.008*[#   4]+0.008*[#   6]+0.008*[#   7]+0.008*[#   8]+
    |psi|^2 = 0.992
==== e(  17) =    13.85937 eV ==== 
     psi = 0.153*[#  16]+0.153*[#  19]+0.153*[#  17]+0.153*[#  18]+0.153*[#  20]+
          +0.048*[#   9]+0.032*[#  15]+0.024*[#   1]+0.024*[#   5]+0.016*[#   2]+
          +0.016*[#   3]+0.016*[#   4]+0.016*[#   6]+0.016*[#   7]+0.016*[#   8]+
    |psi|^2 = 0.995
==== e(  18) =    14.17455 eV ==== 
     psi = 0.395*[#  16]+0.395*[#  19]+0.021*[#   2]+0.021*[#   3]+0.021*[#   4]+
          +0.021*[#   6]+0.021*[#   7]+0.021*[#   8]+0.019*[#  17]+0.019*[#  18]+
          +0.019*[#  20]+0.005*[#   1]+0.005*[#   5]+0.003*[#  10]+0.003*[#  13]+
    |psi|^2 = 0.985
==== e(  19) =    14.65023 eV ==== 
     psi = 0.182*[#  15]+0.152*[#   9]+0.144*[#  16]+0.144*[#  19]+0.058*[#   1]+
          +0.058*[#   5]+0.038*[#   2]+0.038*[#   3]+0.038*[#   4]+0.038*[#   6]+
          +0.038*[#   7]+0.038*[#   8]+0.006*[#  17]+0.006*[#  18]+0.006*[#  20]+
    |psi|^2 = 0.987
==== e(  20) =    17.95978 eV ==== 
     psi = 0.146*[#  15]+0.130*[#   9]+0.014*[#   2]+0.014*[#   3]+0.014*[#   4]+
          +0.014*[#   6]+0.014*[#   7]+0.014*[#   8]+0.004*[#   1]+0.004*[#   5]+
          +0.002*[#  16]+0.002*[#  19]+
    |psi|^2 = 0.370
==== e(  21) =    20.22967 eV ==== 
     psi = 0.284*[#  15]+0.227*[#   9]+0.020*[#   2]+0.020*[#   3]+0.020*[#   4]+
          +0.020*[#   6]+0.020*[#   7]+0.020*[#   8]+0.002*[#   1]+0.002*[#   5]+
          +0.001*[#  16]+0.001*[#  19]+
    |psi|^2 = 0.642
==== e(  22) =    22.08077 eV ==== 
     psi = 0.002*[#   2]+0.002*[#   3]+0.002*[#   4]+0.002*[#   6]+0.002*[#   7]+
          +0.002*[#   8]+0.001*[#  16]+0.001*[#  19]+
    |psi|^2 = 0.019
==== e(  23) =    23.63349 eV ==== 
     psi = 0.002*[#  15]+
    |psi|^2 = 0.010
==== e(  24) =    25.08088 eV ==== 
     psi = 0.002*[#   9]+0.001*[#   2]+0.001*[#   3]+0.001*[#   4]+0.001*[#   6]+
          +0.001*[#   7]+0.001*[#   8]+
    |psi|^2 = 0.014

 k =   0.5000000000  0.0000000000 -0.2500000000
==== e(   1) =    -8.05467 eV ==== 
     psi = 0.398*[#   1]+0.398*[#   5]+0.085*[#  15]+0.064*[#   9]+0.024*[#  10]+
          +0.024*[#  13]+0.002*[#  16]+0.002*[#  19]+
    |psi|^2 = 0.999
==== e(   2) =    -7.56695 eV ==== 
     psi = 0.445*[#   1]+0.445*[#   5]+0.031*[#   9]+0.018*[#  10]+0.018*[#  13]+
          +0.017*[#  16]+0.017*[#  19]+0.004*[#  15]+
    |psi|^2 = 0.998
==== e(   3) =     3.39928 eV ==== 
     psi = 0.105*[#  11]+0.105*[#  12]+0.105*[#  14]+0.105*[#  10]+0.105*[#  13]+
          +0.066*[#   2]+0.066*[#   3]+0.066*[#   4]+0.066*[#   6]+0.066*[#   7]+
          +0.066*[#   8]+0.061*[#  15]+0.004*[#  17]+0.004*[#  18]+0.004*[#  20]+
          +0.001*[#   9]+0.001*[#   1]+0.001*[#   5]+
    |psi|^2 = 0.997
==== e(   4) =     3.93518 eV ==== 
     psi = 0.129*[#  11]+0.129*[#  12]+0.129*[#  14]+0.069*[#  10]+0.069*[#  13]+
          +0.067*[#   2]+0.067*[#   3]+0.067*[#   4]+0.067*[#   6]+0.067*[#   7]+
          +0.067*[#   8]+0.044*[#   9]+0.005*[#  15]+0.005*[#   1]+0.005*[#   5]+
          +0.003*[#  16]+0.003*[#  19]+0.002*[#  17]+0.002*[#  18]+0.002*[#  20]+
    |psi|^2 = 0.997
==== e(   5) =     4.41941 eV ==== 
     psi = 0.123*[#  11]+0.123*[#  12]+0.123*[#  14]+0.115*[#  10]+0.115*[#  13]+
          +0.061*[#   2]+0.061*[#   3]+0.061*[#   4]+0.061*[#   6]+0.061*[#   7]+
          +0.061*[#   8]+0.007*[#   9]+0.005*[#  17]+0.005*[#  18]+0.005*[#  20]+
          +0.004*[#  15]+0.002*[#  16]+0.002*[#  19]+
    |psi|^2 = 0.995
==== e(   6) =     4.57541 eV ==== 
     psi = 0.202*[#  10]+0.202*[#  13]+0.062*[#   2]+0.062*[#   3]+0.062*[#   4]+
          +0.062*[#   6]+0.062*[#   7]+0.062*[#   8]+0.040*[#  11]+0.040*[#  12]+
          +0.040*[#  14]+0.035*[#   9]+0.018*[#  16]+0.018*[#  19]+0.011*[#   1]+
          +0.011*[#   5]+0.004*[#  15]+0.002*[#  17]+0.002*[#  18]+0.002*[#  20]+
    |psi|^2 = 0.996
==== e(   7) =     5.27000 eV ==== 
     psi = 0.140*[#  11]+0.140*[#  12]+0.140*[#  14]+0.086*[#  10]+0.086*[#  13]+
          +0.053*[#   2]+0.053*[#   3]+0.053*[#   4]+0.053*[#   6]+0.053*[#   7]+
          +0.053*[#   8]+0.016*[#   9]+0.011*[#   1]+0.011*[#   5]+0.010*[#  16]+
          +0.010*[#  19]+0.009*[#  17]+0.009*[#  18]+0.009*[#  20]+
    |psi|^2 = 0.996
==== e(   8) =     6.11662 eV ==== 
     psi = 0.110*[#   2]+0.110*[#   3]+0.110*[#   4]+0.110*[#   6]+0.110*[#   7]+
          +0.110*[#   8]+0.036*[#  10]+0.036*[#  13]+0.036*[#  17]+0.036*[#  18]+
          +0.036*[#  20]+0.032*[#  11]+0.032*[#  12]+0.032*[#  14]+0.018*[#  15]+
          +0.010*[#  16]+0.010*[#  19]+0.006*[#   9]+0.006*[#   1]+0.006*[#   5]+
    |psi|^2 = 0.986
==== e(   9) =     6.64730 eV ==== 
     psi = 0.177*[#  11]+0.177*[#  12]+0.177*[#  14]+0.065*[#   2]+0.065*[#   3]+
          +0.065*[#   4]+0.065*[#   6]+0.065*[#   7]+0.065*[#   8]+0.034*[#   9]+
          +0.005*[#  17]+0.005*[#  18]+0.005*[#  20]+0.005*[#  16]+0.005*[#  19]+
          +0.003*[#  10]+0.003*[#  13]+0.002*[#   1]+0.002*[#   5]+0.001*[#  15]+
    |psi|^2 = 0.988
==== e(  10) =     7.23498 eV ==== 
     psi = 0.152*[#  11]+0.152*[#  12]+0.152*[#  14]+0.070*[#   2]+0.070*[#   3]+
          +0.070*[#   4]+0.070*[#   6]+0.070*[#   7]+0.070*[#   8]+0.017*[#  15]+
          +0.016*[#  16]+0.016*[#  19]+0.010*[#  10]+0.010*[#  13]+0.010*[#   9]+
          +0.010*[#  17]+0.010*[#  18]+0.010*[#  20]+0.003*[#   1]+0.003*[#   5]+
    |psi|^2 = 0.986
==== e(  11) =     8.04524 eV ==== 
     psi = 0.111*[#   2]+0.111*[#   3]+0.111*[#   4]+0.111*[#   6]+0.111*[#   7]+
          +0.111*[#   8]+0.089*[#  11]+0.089*[#  12]+0.089*[#  14]+0.008*[#  17]+
          +0.008*[#  18]+0.008*[#  20]+0.006*[#  10]+0.006*[#  13]+0.005*[#   9]+
          +0.003*[#  16]+0.003*[#  19]+0.001*[#   1]+0.001*[#   5]+
    |psi|^2 = 0.980
==== e(  12) =     8.46450 eV ==== 
     psi = 0.170*[#  10]+0.170*[#  13]+0.079*[#   2]+0.079*[#   3]+0.079*[#   4]+
          +0.079*[#   6]+0.079*[#   7]+0.079*[#   8]+0.045*[#  15]+0.033*[#  16]+
          +0.033*[#  19]+0.023*[#   1]+0.023*[#   5]+0.004*[#  11]+0.004*[#  12]+
          +0.004*[#  14]+0.001*[#  17]+0.001*[#  18]+0.001*[#  20]+
    |psi|^2 = 0.987
==== e(  13) =     9.14347 eV ==== 
     psi = 0.141*[#  10]+0.141*[#  13]+0.100*[#   2]+0.100*[#   3]+0.100*[#   4]+
          +0.100*[#   6]+0.100*[#   7]+0.100*[#   8]+0.025*[#  16]+0.025*[#  19]+
          +0.010*[#   1]+0.010*[#   5]+0.005*[#  17]+0.005*[#  18]+0.005*[#  20]+
          +0.004*[#  11]+0.004*[#  12]+0.004*[#  14]+
    |psi|^2 = 0.983
==== e(  14) =    11.02037 eV ==== 
     psi = 0.260*[#  17]+0.260*[#  18]+0.260*[#  20]+0.026*[#   2]+0.026*[#   3]+
          +0.026*[#   4]+0.026*[#   6]+0.026*[#   7]+0.026*[#   8]+0.019*[#  16]+
          +0.019*[#  19]+0.007*[#  15]+0.003*[#  10]+0.003*[#  13]+0.003*[#   1]+
          +0.003*[#   5]+0.001*[#  11]+0.001*[#  12]+0.001*[#  14]+
    |psi|^2 = 0.996
==== e(  15) =    11.44438 eV ==== 
     psi = 0.295*[#  17]+0.295*[#  18]+0.295*[#  20]+0.017*[#  16]+0.017*[#  19]+
          +0.011*[#   2]+0.011*[#   3]+0.011*[#   4]+0.011*[#   6]+0.011*[#   7]+
          +0.011*[#   8]+0.005*[#   9]+0.002*[#  15]+
    |psi|^2 = 0.998
==== e(  16) =    13.72430 eV ==== 
     psi = 0.203*[#  17]+0.203*[#  18]+0.203*[#  20]+0.136*[#  16]+0.136*[#  19]+
          +0.047*[#   9]+0.012*[#   1]+0.012*[#   5]+0.006*[#   2]+0.006*[#   3]+
          +0.006*[#   4]+0.006*[#   6]+0.006*[#   7]+0.006*[#   8]+0.003*[#  15]+
    |psi|^2 = 0.993
==== e(  17) =    13.94226 eV ==== 
     psi = 0.231*[#  16]+0.231*[#  19]+0.135*[#  17]+0.135*[#  18]+0.135*[#  20]+
          +0.036*[#   9]+0.015*[#   1]+0.015*[#   5]+0.010*[#   2]+0.010*[#   3]+
          +0.010*[#   4]+0.010*[#   6]+0.010*[#   7]+0.010*[#   8]+0.001*[#  10]+
          +0.001*[#  13]+0.001*[#  15]+
    |psi|^2 = 0.995
==== e(  18) =    14.22023 eV ==== 
     psi = 0.403*[#  16]+0.403*[#  19]+0.018*[#   2]+0.018*[#   3]+0.018*[#   4]+
          +0.018*[#   6]+0.018*[#   7]+0.018*[#   8]+0.016*[#  17]+0.016*[#  18]+
          +0.016*[#  20]+0.008*[#   1]+0.008*[#   5]+0.004*[#  15]+0.001*[#   9]+
          +0.001*[#  10]+0.001*[#  13]+
    |psi|^2 = 0.986
==== e(  19) =    16.31809 eV ==== 
     psi = 0.293*[#   9]+0.252*[#  15]+0.043*[#   2]+0.043*[#   3]+0.043*[#   4]+
          +0.043*[#   6]+0.043*[#   7]+0.043*[#   8]+0.040*[#   1]+0.040*[#   5]+
          +0.040*[#  16]+0.040*[#  19]+0.002*[#  10]+0.002*[#  13]+
    |psi|^2 = 0.968
==== e(  20) =    19.16263 eV ==== 
     psi = 0.280*[#  15]+0.224*[#   9]+0.018*[#   2]+0.018*[#   3]+0.018*[#   4]+
          +0.018*[#   6]+0.018*[#   7]+0.018*[#   8]+0.002*[#   1]+0.002*[#   5]+
    |psi|^2 = 0.621
==== e(  21) =    20.25014 eV ==== 
     psi = 0.172*[#  15]+0.132*[#   9]+0.010*[#   2]+0.010*[#   3]+0.010*[#   4]+
          +0.010*[#   6]+0.010*[#   7]+0.010*[#   8]+0.005*[#  16]+0.005*[#  19]+
          +0.001*[#  10]+0.001*[#  13]+
    |psi|^2 = 0.376
==== e(  22) =    20.90077 eV ==== 
     psi = 0.005*[#   2]+0.005*[#   3]+0.005*[#   4]+0.005*[#   6]+0.005*[#   7]+
          +0.005*[#   8]+
    |psi|^2 = 0.032
==== e(  23) =    22.48082 eV ==== 
     psi = 0.001*[#   2]+0.001*[#   3]+0.001*[#   4]+0.001*[#   6]+0.001*[#   7]+
          +0.001*[#   8]+
    |psi|^2 = 0.012
==== e(  24) =    23.18649 eV ==== 
     psi = 0.022*[#  15]+0.002*[#   2]+0.002*[#   3]+0.002*[#   4]+0.002*[#   6]+
          +0.002*[#   7]+0.002*[#   8]+
    |psi|^2 = 0.037

 k =  -0.8125000000  0.4375000000  0.1875000000
==== e(   1) =    -7.96479 eV ==== 
     psi = 0.430*[#   1]+0.430*[#   5]+0.048*[#  10]+0.048*[#  13]+0.022*[#   9]+
          +0.012*[#  15]+0.003*[#  16]+0.003*[#  19]+
    |psi|^2 = 0.998
==== e(   2) =    -7.40030 eV ==== 
     psi = 0.455*[#   1]+0.455*[#   5]+0.023*[#  16]+0.023*[#  19]+0.016*[#  15]+
          +0.007*[#  10]+0.007*[#  13]+0.007*[#   9]+
    |psi|^2 = 0.997
==== e(   3) =     3.28966 eV ==== 
     psi = 0.157*[#  11]+0.157*[#  12]+0.157*[#  14]+0.074*[#   2]+0.074*[#   3]+
          +0.074*[#   4]+0.074*[#   6]+0.074*[#   7]+0.074*[#   8]+0.066*[#   9]+
          +0.003*[#  17]+0.003*[#  18]+0.003*[#  20]+0.002*[#  10]+0.002*[#  13]+
          +0.002*[#  15]+0.001*[#   1]+0.001*[#   5]+0.001*[#  16]+0.001*[#  19]+
    |psi|^2 = 0.998
==== e(   4) =     3.65540 eV ==== 
     psi = 0.126*[#  10]+0.126*[#  13]+0.080*[#  11]+0.080*[#  12]+0.080*[#  14]+
          +0.070*[#   2]+0.070*[#   3]+0.070*[#   4]+0.070*[#   6]+0.070*[#   7]+
          +0.070*[#   8]+0.047*[#  15]+0.009*[#   9]+0.006*[#  17]+0.006*[#  18]+
          +0.006*[#  20]+0.003*[#   1]+0.003*[#   5]+
    |psi|^2 = 0.995
==== e(   5) =     4.14396 eV ==== 
     psi = 0.197*[#  10]+0.197*[#  13]+0.064*[#   2]+0.064*[#   3]+0.064*[#   4]+
          +0.064*[#   6]+0.064*[#   7]+0.064*[#   8]+0.060*[#  11]+0.060*[#  12]+
          +0.060*[#  14]+0.018*[#  15]+0.004*[#  17]+0.004*[#  18]+0.004*[#  20]+
          +0.004*[#   1]+0.004*[#   5]+
    |psi|^2 = 0.994
==== e(   6) =     4.86853 eV ==== 
     psi = 0.102*[#  10]+0.102*[#  13]+0.081*[#   2]+0.081*[#   3]+0.081*[#   4]+
          +0.081*[#   6]+0.081*[#   7]+0.081*[#   8]+0.058*[#  11]+0.058*[#  12]+
          +0.058*[#  14]+0.030*[#  15]+0.020*[#  17]+0.020*[#  18]+0.020*[#  20]+
          +0.014*[#  16]+0.014*[#  19]+0.003*[#   1]+0.003*[#   5]+0.002*[#   9]+
    |psi|^2 = 0.992
==== e(   7) =     5.33007 eV ==== 
     psi = 0.141*[#  10]+0.141*[#  13]+0.093*[#  11]+0.093*[#  12]+0.093*[#  14]+
          +0.056*[#   2]+0.056*[#   3]+0.056*[#   4]+0.056*[#   6]+0.056*[#   7]+
          +0.056*[#   8]+0.019*[#   1]+0.019*[#   5]+0.018*[#  16]+0.018*[#  19]+
          +0.008*[#   9]+0.005*[#  17]+0.005*[#  18]+0.005*[#  20]+0.001*[#  15]+
    |psi|^2 = 0.992
==== e(   8) =     5.66283 eV ==== 
     psi = 0.099*[#  11]+0.099*[#  12]+0.099*[#  14]+0.091*[#   2]+0.091*[#   3]+
          +0.091*[#   4]+0.091*[#   6]+0.091*[#   7]+0.091*[#   8]+0.025*[#  17]+
          +0.025*[#  18]+0.025*[#  20]+0.021*[#  10]+0.021*[#  13]+0.009*[#  15]+
          +0.008*[#   9]+0.005*[#  16]+0.005*[#  19]+0.002*[#   1]+0.002*[#   5]+
    |psi|^2 = 0.989
==== e(   9) =     6.73442 eV ==== 
     psi = 0.098*[#   2]+0.098*[#   3]+0.098*[#   4]+0.098*[#   6]+0.098*[#   7]+
          +0.098*[#   8]+0.094*[#  11]+0.094*[#  12]+0.094*[#  14]+0.030*[#  16]+
          +0.030*[#  19]+0.011*[#  17]+0.011*[#  18]+0.011*[#  20]+0.009*[#   9]+
          +0.003*[#  10]+0.003*[#  13]+
    |psi|^2 = 0.982
==== e(  10) =     6.92369 eV ==== 
     psi = 0.209*[#  11]+0.209*[#  12]+0.209*[#  14]+0.044*[#   2]+0.044*[#   3]+
          +0.044*[#   4]+0.044*[#   6]+0.044*[#   7]+0.044*[#   8]+0.022*[#  10]+
          +0.022*[#  13]+0.021*[#   9]+0.010*[#  16]+0.010*[#  19]+0.004*[#  17]+
          +0.004*[#  18]+0.004*[#  20]+0.001*[#  15]+
    |psi|^2 = 0.990
==== e(  11) =     7.82423 eV ==== 
     psi = 0.126*[#  11]+0.126*[#  12]+0.126*[#  14]+0.093*[#   2]+0.093*[#   3]+
          +0.093*[#   4]+0.093*[#   6]+0.093*[#   7]+0.093*[#   8]+0.032*[#   9]+
          +0.002*[#  17]+0.002*[#  18]+0.002*[#  20]+0.002*[#  15]+0.001*[#  16]+
          +0.001*[#  19]+
    |psi|^2 = 0.982
==== e(  12) =     8.78578 eV ==== 
     psi = 0.170*[#  10]+0.170*[#  13]+0.086*[#   2]+0.086*[#   3]+0.086*[#   4]+
          +0.086*[#   6]+0.086*[#   7]+0.086*[#   8]+0.023*[#   1]+0.023*[#   5]+
          +0.018*[#  16]+0.018*[#  19]+0.015*[#  15]+0.008*[#  11]+0.008*[#  12]+
          +0.008*[#  14]+
    |psi|^2 = 0.978
==== e(  13) =     9.09005 eV ==== 
     psi = 0.149*[#  10]+0.149*[#  13]+0.096*[#   2]+0.096*[#   3]+0.096*[#   4]+
          +0.096*[#   6]+0.096*[#   7]+0.096*[#   8]+0.014*[#  16]+0.014*[#  19]+
          +0.012*[#  15]+0.011*[#  11]+0.011*[#  12]+0.011*[#  14]+0.008*[#   1]+
          +0.008*[#   5]+0.005*[#  17]+0.005*[#  18]+0.005*[#  20]+
    |psi|^2 = 0.979
==== e(  14) =    10.98591 eV ==== 
     psi = 0.262*[#  17]+0.262*[#  18]+0.262*[#  20]+0.026*[#   2]+0.026*[#   3]+
          +0.026*[#   4]+0.026*[#   6]+0.026*[#   7]+0.026*[#   8]+0.018*[#  16]+
          +0.018*[#  19]+0.007*[#  15]+0.002*[#   1]+0.002*[#   5]+0.002*[#  10]+
          +0.002*[#  13]+
    |psi|^2 = 0.995
==== e(  15) =    11.65572 eV ==== 
     psi = 0.293*[#  17]+0.293*[#  18]+0.293*[#  20]+0.014*[#   2]+0.014*[#   3]+
          +0.014*[#   4]+0.014*[#   6]+0.014*[#   7]+0.014*[#   8]+0.014*[#  16]+
          +0.014*[#  19]+0.005*[#   9]+
    |psi|^2 = 0.997
==== e(  16) =    13.89391 eV ==== 
     psi = 0.318*[#  17]+0.318*[#  18]+0.318*[#  20]+0.005*[#   2]+0.005*[#   3]+
          +0.005*[#   4]+0.005*[#   6]+0.005*[#   7]+0.005*[#   8]+0.004*[#  16]+
          +0.004*[#  19]+0.001*[#  15]+
    |psi|^2 = 0.996
==== e(  17) =    14.10029 eV ==== 
     psi = 0.403*[#  16]+0.403*[#  19]+0.028*[#   9]+0.022*[#  17]+0.022*[#  18]+
          +0.022*[#  20]+0.012*[#   2]+0.012*[#   3]+0.012*[#   4]+0.012*[#   6]+
          +0.012*[#   7]+0.012*[#   8]+0.008*[#   1]+0.008*[#   5]+0.001*[#  10]+
          +0.001*[#  13]+
    |psi|^2 = 0.990
==== e(  18) =    14.23950 eV ==== 
     psi = 0.404*[#  16]+0.404*[#  19]+0.019*[#   1]+0.019*[#   5]+0.016*[#  17]+
          +0.016*[#  18]+0.016*[#  20]+0.014*[#   2]+0.014*[#   3]+0.014*[#   4]+
          +0.014*[#   6]+0.014*[#   7]+0.014*[#   8]+0.001*[#   9]+
    |psi|^2 = 0.982
==== e(  19) =    17.77005 eV ==== 
     psi = 0.459*[#   9]+0.228*[#  15]+0.029*[#   2]+0.029*[#   3]+0.029*[#   4]+
          +0.029*[#   6]+0.029*[#   7]+0.029*[#   8]+0.014*[#   1]+0.014*[#   5]+
          +0.009*[#  16]+0.009*[#  19]+
    |psi|^2 = 0.909
==== e(  20) =    18.91943 eV ==== 
     psi = 0.102*[#  15]+0.054*[#   9]+0.008*[#   2]+0.008*[#   3]+0.008*[#   4]+
          +0.008*[#   6]+0.008*[#   7]+0.008*[#   8]+0.001*[#   1]+0.001*[#   5]+
          +0.001*[#  16]+0.001*[#  19]+
    |psi|^2 = 0.210
==== e(  21) =    19.88358 eV ==== 
     psi = 0.356*[#  15]+0.251*[#   9]+0.020*[#   2]+0.020*[#   3]+0.020*[#   4]+
          +0.020*[#   6]+0.020*[#   7]+0.020*[#   8]+0.002*[#  16]+0.002*[#  19]+
    |psi|^2 = 0.731
==== e(  22) =    21.11760 eV ==== 
     psi = 0.123*[#  15]+0.005*[#   2]+0.005*[#   3]+0.005*[#   4]+0.005*[#   6]+
          +0.005*[#   7]+0.005*[#   8]+0.001*[#   1]+0.001*[#   5]+
    |psi|^2 = 0.160
==== e(  23) =    21.53022 eV ==== 
     psi = 0.003*[#   2]+0.003*[#   3]+0.003*[#   4]+0.003*[#   6]+0.003*[#   7]+
          +0.003*[#   8]+0.002*[#  15]+0.001*[#  16]+0.001*[#  19]+
    |psi|^2 = 0.028
==== e(  24) =    21.84296 eV ==== 
     psi = 0.002*[#   2]+0.002*[#   3]+0.002*[#   4]+0.002*[#   6]+0.002*[#   7]+
          +0.002*[#   8]+
    |psi|^2 = 0.018

 k =  -0.6250000000  0.3750000000  0.1250000000
==== e(   1) =    -7.93266 eV ==== 
     psi = 0.432*[#   1]+0.432*[#   5]+0.046*[#  10]+0.046*[#  13]+0.026*[#   9]+
          +0.008*[#  15]+0.003*[#  16]+0.003*[#  19]+
    |psi|^2 = 0.998
==== e(   2) =    -7.42969 eV ==== 
     psi = 0.452*[#   1]+0.452*[#   5]+0.023*[#  15]+0.022*[#  16]+0.022*[#  19]+
          +0.009*[#  10]+0.009*[#  13]+0.006*[#   9]+
    |psi|^2 = 0.998
==== e(   3) =     3.23616 eV ==== 
     psi = 0.134*[#  11]+0.134*[#  12]+0.134*[#  14]+0.075*[#   2]+0.075*[#   3]+
          +0.075*[#   4]+0.075*[#   6]+0.075*[#   7]+0.075*[#   8]+0.066*[#   9]+
          +0.020*[#  10]+0.020*[#  13]+0.016*[#  15]+0.004*[#  17]+0.004*[#  18]+
          +0.004*[#  20]+0.002*[#  16]+0.002*[#  19]+0.002*[#   1]+0.002*[#   5]+
    |psi|^2 = 0.999
==== e(   4) =     3.77318 eV ==== 
     psi = 0.127*[#  11]+0.127*[#  12]+0.127*[#  14]+0.113*[#  10]+0.113*[#  13]+
          +0.057*[#   2]+0.057*[#   3]+0.057*[#   4]+0.057*[#   6]+0.057*[#   7]+
          +0.057*[#   8]+0.024*[#  15]+0.005*[#   1]+0.005*[#   5]+0.004*[#  17]+
          +0.004*[#  18]+0.004*[#  20]+0.001*[#  16]+0.001*[#  19]+
    |psi|^2 = 0.995
==== e(   5) =     4.15241 eV ==== 
     psi = 0.179*[#  10]+0.179*[#  13]+0.070*[#   2]+0.070*[#   3]+0.070*[#   4]+
          +0.070*[#   6]+0.070*[#   7]+0.070*[#   8]+0.059*[#  11]+0.059*[#  12]+
          +0.059*[#  14]+0.020*[#  15]+0.004*[#  17]+0.004*[#  18]+0.004*[#  20]+
          +0.003*[#   1]+0.003*[#   5]+0.001*[#   9]+
    |psi|^2 = 0.994
==== e(   6) =     4.83930 eV ==== 
     psi = 0.118*[#  10]+0.118*[#  13]+0.094*[#   2]+0.094*[#   3]+0.094*[#   4]+
          +0.094*[#   6]+0.094*[#   7]+0.094*[#   8]+0.024*[#  11]+0.024*[#  12]+
          +0.024*[#  14]+0.023*[#  15]+0.021*[#  17]+0.021*[#  18]+0.021*[#  20]+
          +0.013*[#  16]+0.013*[#  19]+0.003*[#   1]+0.003*[#   5]+0.001*[#   9]+
    |psi|^2 = 0.989
==== e(   7) =     5.27189 eV ==== 
     psi = 0.151*[#  10]+0.151*[#  13]+0.093*[#  11]+0.093*[#  12]+0.093*[#  14]+
          +0.053*[#   2]+0.053*[#   3]+0.053*[#   4]+0.053*[#   6]+0.053*[#   7]+
          +0.053*[#   8]+0.019*[#   1]+0.019*[#   5]+0.014*[#  16]+0.014*[#  19]+
          +0.007*[#  17]+0.007*[#  18]+0.007*[#  20]+0.002*[#  15]+0.002*[#   9]+
    |psi|^2 = 0.991
==== e(   8) =     5.67438 eV ==== 
     psi = 0.100*[#  11]+0.100*[#  12]+0.100*[#  14]+0.092*[#   2]+0.092*[#   3]+
          +0.092*[#   4]+0.092*[#   6]+0.092*[#   7]+0.092*[#   8]+0.022*[#  17]+
          +0.022*[#  18]+0.022*[#  20]+0.015*[#   9]+0.012*[#  10]+0.012*[#  13]+
          +0.012*[#  16]+0.012*[#  19]+0.008*[#  15]+
    |psi|^2 = 0.990
==== e(   9) =     6.68276 eV ==== 
     psi = 0.112*[#  11]+0.112*[#  12]+0.112*[#  14]+0.093*[#   2]+0.093*[#   3]+
          +0.093*[#   4]+0.093*[#   6]+0.093*[#   7]+0.093*[#   8]+0.020*[#  16]+
          +0.020*[#  19]+0.010*[#  17]+0.010*[#  18]+0.010*[#  20]+0.009*[#   9]+
          +0.002*[#  10]+0.002*[#  13]+
    |psi|^2 = 0.980
==== e(  10) =     6.96740 eV ==== 
     psi = 0.196*[#  11]+0.196*[#  12]+0.196*[#  14]+0.049*[#   2]+0.049*[#   3]+
          +0.049*[#   4]+0.049*[#   6]+0.049*[#   7]+0.049*[#   8]+0.024*[#   9]+
          +0.022*[#  10]+0.022*[#  13]+0.014*[#  16]+0.014*[#  19]+0.003*[#  17]+
          +0.003*[#  18]+0.003*[#  20]+
    |psi|^2 = 0.991
==== e(  11) =     7.77278 eV ==== 
     psi = 0.131*[#  11]+0.131*[#  12]+0.131*[#  14]+0.088*[#   2]+0.088*[#   3]+
          +0.088*[#   4]+0.088*[#   6]+0.088*[#   7]+0.088*[#   8]+0.030*[#   9]+
          +0.004*[#  10]+0.004*[#  13]+0.004*[#  16]+0.004*[#  19]+0.003*[#  17]+
          +0.003*[#  18]+0.003*[#  20]+0.002*[#   1]+0.002*[#   5]+0.001*[#  15]+
    |psi|^2 = 0.980
==== e(  12) =     8.82667 eV ==== 
     psi = 0.164*[#  10]+0.164*[#  13]+0.088*[#   2]+0.088*[#   3]+0.088*[#   4]+
          +0.088*[#   6]+0.088*[#   7]+0.088*[#   8]+0.032*[#  15]+0.018*[#   1]+
          +0.018*[#   5]+0.011*[#  11]+0.011*[#  12]+0.011*[#  14]+0.008*[#  16]+
          +0.008*[#  19]+0.003*[#  17]+0.003*[#  18]+0.003*[#  20]+0.001*[#   9]+
    |psi|^2 = 0.982
==== e(  13) =     9.11663 eV ==== 
     psi = 0.147*[#  10]+0.147*[#  13]+0.092*[#   2]+0.092*[#   3]+0.092*[#   4]+
          +0.092*[#   6]+0.092*[#   7]+0.092*[#   8]+0.029*[#  16]+0.029*[#  19]+
          +0.014*[#   1]+0.014*[#   5]+0.009*[#  11]+0.009*[#  12]+0.009*[#  14]+
          +0.006*[#  15]+0.006*[#  17]+0.006*[#  18]+0.006*[#  20]+
    |psi|^2 = 0.980
==== e(  14) =    10.97755 eV ==== 
     psi = 0.262*[#  17]+0.262*[#  18]+0.262*[#  20]+0.026*[#   2]+0.026*[#   3]+
          +0.026*[#   4]+0.026*[#   6]+0.026*[#   7]+0.026*[#   8]+0.018*[#  16]+
          +0.018*[#  19]+0.006*[#  15]+0.002*[#  10]+0.002*[#  13]+0.002*[#   1]+
          +0.002*[#   5]+0.002*[#   9]+
    |psi|^2 = 0.995
==== e(  15) =    11.66175 eV ==== 
     psi = 0.291*[#  17]+0.291*[#  18]+0.291*[#  20]+0.015*[#   2]+0.015*[#   3]+
          +0.015*[#   4]+0.015*[#   6]+0.015*[#   7]+0.015*[#   8]+0.014*[#  16]+
          +0.014*[#  19]+0.005*[#   9]+
    |psi|^2 = 0.997
==== e(  16) =    13.89744 eV ==== 
     psi = 0.312*[#  17]+0.312*[#  18]+0.312*[#  20]+0.012*[#  16]+0.012*[#  19]+
          +0.005*[#   2]+0.005*[#   3]+0.005*[#   4]+0.005*[#   6]+0.005*[#   7]+
          +0.005*[#   8]+0.003*[#   9]+
    |psi|^2 = 0.997
==== e(  17) =    14.03895 eV ==== 
     psi = 0.396*[#  16]+0.396*[#  19]+0.033*[#   9]+0.031*[#  17]+0.031*[#  18]+
          +0.031*[#  20]+0.009*[#   2]+0.009*[#   3]+0.009*[#   4]+0.009*[#   6]+
          +0.009*[#   7]+0.009*[#   8]+0.008*[#   1]+0.008*[#   5]+
    |psi|^2 = 0.991
==== e(  18) =    14.34899 eV ==== 
     psi = 0.397*[#  16]+0.397*[#  19]+0.018*[#   2]+0.018*[#   3]+0.018*[#   4]+
          +0.018*[#   6]+0.018*[#   7]+0.018*[#   8]+0.017*[#   1]+0.017*[#   5]+
          +0.015*[#  17]+0.015*[#  18]+0.015*[#  20]+0.002*[#   9]+0.002*[#  10]+
          +0.002*[#  13]+
    |psi|^2 = 0.985
==== e(  19) =    17.49613 eV ==== 
     psi = 0.366*[#   9]+0.196*[#  15]+0.028*[#   2]+0.028*[#   3]+0.028*[#   4]+
          +0.028*[#   6]+0.028*[#   7]+0.028*[#   8]+0.014*[#   1]+0.014*[#   5]+
          +0.010*[#  16]+0.010*[#  19]+
    |psi|^2 = 0.777
==== e(  20) =    18.97741 eV ==== 
     psi = 0.357*[#  15]+0.315*[#   9]+0.016*[#   2]+0.016*[#   3]+0.016*[#   4]+
          +0.016*[#   6]+0.016*[#   7]+0.016*[#   8]+0.003*[#   1]+0.003*[#   5]+
          +0.003*[#  16]+0.003*[#  19]+
    |psi|^2 = 0.780
==== e(  21) =    20.27618 eV ==== 
     psi = 0.057*[#   9]+0.038*[#  15]+0.007*[#   2]+0.007*[#   3]+0.007*[#   4]+
          +0.007*[#   6]+0.007*[#   7]+0.007*[#   8]+0.001*[#  16]+0.001*[#  19]+
    |psi|^2 = 0.142
==== e(  22) =    20.88587 eV ==== 
     psi = 0.187*[#  15]+0.020*[#   9]+0.010*[#   2]+0.010*[#   3]+0.010*[#   4]+
          +0.010*[#   6]+0.010*[#   7]+0.010*[#   8]+0.002*[#   1]+0.002*[#   5]+
    |psi|^2 = 0.273
==== e(  23) =    21.23178 eV ==== 
     psi = 0.024*[#  15]+0.005*[#   2]+0.005*[#   3]+0.005*[#   4]+0.005*[#   6]+
          +0.005*[#   7]+0.005*[#   8]+0.002*[#   9]+
    |psi|^2 = 0.058
==== e(  24) =    22.23966 eV ==== 
     psi = 0.008*[#  15]+0.002*[#   2]+0.002*[#   3]+0.002*[#   4]+0.002*[#   6]+
          +0.002*[#   7]+0.002*[#   8]+0.001*[#  16]+0.001*[#  19]+0.001*[#   9]+
    |psi|^2 = 0.024

 k =  -0.4375000000  0.3125000000  0.0625000000
==== e(   1) =    -8.01173 eV ==== 
     psi = 0.396*[#   1]+0.396*[#   5]+0.087*[#   9]+0.084*[#  15]+0.014*[#  10]+
          +0.014*[#  13]+0.002*[#  16]+0.002*[#  19]+
    |psi|^2 = 0.999
==== e(   2) =    -7.60202 eV ==== 
     psi = 0.444*[#   1]+0.444*[#   5]+0.027*[#  10]+0.027*[#  13]+0.017*[#  16]+
          +0.017*[#  19]+0.010*[#   9]+0.009*[#  15]+
    |psi|^2 = 0.998
==== e(   3) =     3.51578 eV ==== 
     psi = 0.113*[#  11]+0.113*[#  12]+0.113*[#  14]+0.101*[#  10]+0.101*[#  13]+
          +0.063*[#   2]+0.063*[#   3]+0.063*[#   4]+0.063*[#   6]+0.063*[#   7]+
          +0.063*[#   8]+0.052*[#  15]+0.005*[#  17]+0.005*[#  18]+0.005*[#  20]+
          +0.003*[#   1]+0.003*[#   5]+
    |psi|^2 = 0.998
==== e(   4) =     3.86286 eV ==== 
     psi = 0.155*[#  11]+0.155*[#  12]+0.155*[#  14]+0.062*[#   2]+0.062*[#   3]+
          +0.062*[#   4]+0.062*[#   6]+0.062*[#   7]+0.062*[#   8]+0.054*[#  10]+
          +0.054*[#  13]+0.027*[#   9]+0.007*[#   1]+0.007*[#   5]+0.002*[#  15]+
          +0.002*[#  17]+0.002*[#  18]+0.002*[#  20]+0.001*[#  16]+0.001*[#  19]+
    |psi|^2 = 0.995
==== e(   5) =     4.36314 eV ==== 
     psi = 0.111*[#  10]+0.111*[#  13]+0.099*[#  11]+0.099*[#  12]+0.099*[#  14]+
          +0.071*[#   2]+0.071*[#   3]+0.071*[#   4]+0.071*[#   6]+0.071*[#   7]+
          +0.071*[#   8]+0.021*[#   9]+0.006*[#  17]+0.006*[#  18]+0.006*[#  20]+
          +0.004*[#  15]+
    |psi|^2 = 0.994
==== e(   6) =     4.59494 eV ==== 
     psi = 0.237*[#  10]+0.237*[#  13]+0.060*[#   2]+0.060*[#   3]+0.060*[#   4]+
          +0.060*[#   6]+0.060*[#   7]+0.060*[#   8]+0.026*[#   9]+0.024*[#  11]+
          +0.024*[#  12]+0.024*[#  14]+0.015*[#  16]+0.015*[#  19]+0.011*[#   1]+
          +0.011*[#   5]+0.004*[#  17]+0.004*[#  18]+0.004*[#  20]+
    |psi|^2 = 0.996
==== e(   7) =     5.27785 eV ==== 
     psi = 0.130*[#  11]+0.130*[#  12]+0.130*[#  14]+0.096*[#  10]+0.096*[#  13]+
          +0.054*[#   2]+0.054*[#   3]+0.054*[#   4]+0.054*[#   6]+0.054*[#   7]+
          +0.054*[#   8]+0.019*[#  16]+0.019*[#  19]+0.016*[#   9]+0.012*[#   1]+
          +0.012*[#   5]+0.004*[#  17]+0.004*[#  18]+0.004*[#  20]+
    |psi|^2 = 0.997
==== e(   8) =     6.06308 eV ==== 
     psi = 0.121*[#   2]+0.121*[#   3]+0.121*[#   4]+0.121*[#   6]+0.121*[#   7]+
          +0.121*[#   8]+0.037*[#  17]+0.037*[#  18]+0.037*[#  20]+0.026*[#  10]+
          +0.026*[#  13]+0.020*[#  11]+0.020*[#  12]+0.020*[#  14]+0.008*[#  15]+
          +0.008*[#  16]+0.008*[#  19]+0.003*[#   1]+0.003*[#   5]+0.003*[#   9]+
    |psi|^2 = 0.981
==== e(   9) =     6.61548 eV ==== 
     psi = 0.177*[#  11]+0.177*[#  12]+0.177*[#  14]+0.065*[#   2]+0.065*[#   3]+
          +0.065*[#   4]+0.065*[#   6]+0.065*[#   7]+0.065*[#   8]+0.033*[#   9]+
          +0.009*[#  15]+0.005*[#  17]+0.005*[#  18]+0.005*[#  20]+0.002*[#  10]+
          +0.002*[#  13]+0.002*[#  16]+0.002*[#  19]+
    |psi|^2 = 0.988
==== e(  10) =     7.19755 eV ==== 
     psi = 0.176*[#  11]+0.176*[#  12]+0.176*[#  14]+0.060*[#   2]+0.060*[#   3]+
          +0.060*[#   4]+0.060*[#   6]+0.060*[#   7]+0.060*[#   8]+0.018*[#  15]+
          +0.018*[#   9]+0.017*[#  16]+0.017*[#  19]+0.005*[#  17]+0.005*[#  18]+
          +0.005*[#  20]+0.004*[#  10]+0.004*[#  13]+0.003*[#   1]+0.003*[#   5]+
    |psi|^2 = 0.989
==== e(  11) =     7.92381 eV ==== 
     psi = 0.101*[#   2]+0.101*[#   3]+0.101*[#   4]+0.101*[#   6]+0.101*[#   7]+
          +0.101*[#   8]+0.087*[#  11]+0.087*[#  12]+0.087*[#  14]+0.022*[#  10]+
          +0.022*[#  13]+0.015*[#  16]+0.015*[#  19]+0.008*[#  15]+0.008*[#  17]+
          +0.008*[#  18]+0.008*[#  20]+0.005*[#   1]+0.005*[#   5]+0.003*[#   9]+
    |psi|^2 = 0.981
==== e(  12) =     8.69078 eV ==== 
     psi = 0.151*[#  10]+0.151*[#  13]+0.091*[#   2]+0.091*[#   3]+0.091*[#   4]+
          +0.091*[#   6]+0.091*[#   7]+0.091*[#   8]+0.042*[#  15]+0.013*[#  16]+
          +0.013*[#  19]+0.012*[#   1]+0.012*[#   5]+0.012*[#  11]+0.012*[#  12]+
          +0.012*[#  14]+0.003*[#  17]+0.003*[#  18]+0.003*[#  20]+
    |psi|^2 = 0.987
==== e(  13) =     9.19270 eV ==== 
     psi = 0.137*[#  10]+0.137*[#  13]+0.094*[#   2]+0.094*[#   3]+0.094*[#   4]+
          +0.094*[#   6]+0.094*[#   7]+0.094*[#   8]+0.039*[#  16]+0.039*[#  19]+
          +0.016*[#   1]+0.016*[#   5]+0.010*[#  17]+0.010*[#  18]+0.010*[#  20]+
          +0.002*[#  11]+0.002*[#  12]+0.002*[#  14]+
    |psi|^2 = 0.985
==== e(  14) =    11.00239 eV ==== 
     psi = 0.260*[#  17]+0.260*[#  18]+0.260*[#  20]+0.026*[#   2]+0.026*[#   3]+
          +0.026*[#   4]+0.026*[#   6]+0.026*[#   7]+0.026*[#   8]+0.018*[#  16]+
          +0.018*[#  19]+0.006*[#  15]+0.004*[#  10]+0.004*[#  13]+0.003*[#   9]+
          +0.002*[#   1]+0.002*[#   5]+
    |psi|^2 = 0.996
==== e(  15) =    11.44952 eV ==== 
     psi = 0.291*[#  17]+0.291*[#  18]+0.291*[#  20]+0.018*[#  16]+0.018*[#  19]+
          +0.013*[#   2]+0.013*[#   3]+0.013*[#   4]+0.013*[#   6]+0.013*[#   7]+
          +0.013*[#   8]+0.005*[#   9]+0.002*[#  15]+
    |psi|^2 = 0.998
==== e(  16) =    13.73109 eV ==== 
     psi = 0.227*[#  17]+0.227*[#  18]+0.227*[#  20]+0.109*[#  16]+0.109*[#  19]+
          +0.044*[#   9]+0.007*[#   1]+0.007*[#   5]+0.006*[#   2]+0.006*[#   3]+
          +0.006*[#   4]+0.006*[#   6]+0.006*[#   7]+0.006*[#   8]+0.002*[#  15]+
    |psi|^2 = 0.995
==== e(  17) =    13.98395 eV ==== 
     psi = 0.272*[#  16]+0.272*[#  19]+0.113*[#  17]+0.113*[#  18]+0.113*[#  20]+
          +0.031*[#   9]+0.010*[#   2]+0.010*[#   3]+0.010*[#   4]+0.010*[#   6]+
          +0.010*[#   7]+0.010*[#   8]+0.008*[#   1]+0.008*[#   5]+0.001*[#  10]+
          +0.001*[#  13]+
    |psi|^2 = 0.994
==== e(  18) =    14.30731 eV ==== 
     psi = 0.390*[#  16]+0.390*[#  19]+0.021*[#   2]+0.021*[#   3]+0.021*[#   4]+
          +0.021*[#   6]+0.021*[#   7]+0.021*[#   8]+0.016*[#  17]+0.016*[#  18]+
          +0.016*[#  20]+0.013*[#   1]+0.013*[#   5]+0.006*[#   9]+0.003*[#  15]+
          +0.001*[#  10]+0.001*[#  13]+
    |psi|^2 = 0.990
==== e(  19) =    15.95517 eV ==== 
     psi = 0.287*[#   9]+0.249*[#  15]+0.048*[#   1]+0.048*[#   5]+0.041*[#   2]+
          +0.041*[#   3]+0.041*[#   4]+0.041*[#   6]+0.041*[#   7]+0.041*[#   8]+
          +0.033*[#  16]+0.033*[#  19]+0.001*[#  10]+0.001*[#  13]+
    |psi|^2 = 0.948
==== e(  20) =    19.63412 eV ==== 
     psi = 0.401*[#  15]+0.321*[#   9]+0.018*[#   2]+0.018*[#   3]+0.018*[#   4]+
          +0.018*[#   6]+0.018*[#   7]+0.018*[#   8]+0.005*[#  16]+0.005*[#  19]+
          +0.001*[#  10]+0.001*[#  13]+
    |psi|^2 = 0.846
==== e(  21) =    19.87687 eV ==== 
     psi = 0.058*[#  15]+0.049*[#   9]+0.007*[#   2]+0.007*[#   3]+0.007*[#   4]+
          +0.007*[#   6]+0.007*[#   7]+0.007*[#   8]+
    |psi|^2 = 0.153
==== e(  22) =    20.90035 eV ==== 
     psi = 0.005*[#   2]+0.005*[#   3]+0.005*[#   4]+0.005*[#   6]+0.005*[#   7]+
          +0.005*[#   8]+0.002*[#  15]+
    |psi|^2 = 0.037
==== e(  23) =    22.19205 eV ==== 
     psi = 0.014*[#  15]+0.002*[#   2]+0.002*[#   3]+0.002*[#   4]+0.002*[#   6]+
          +0.002*[#   7]+0.002*[#   8]+
    |psi|^2 = 0.033
==== e(  24) =    23.66516 eV ==== 
     psi = 0.017*[#  15]+0.002*[#   2]+0.002*[#   3]+0.002*[#   4]+0.002*[#   6]+
          +0.002*[#   7]+0.002*[#   8]+0.002*[#   9]+0.001*[#  16]+0.001*[#  19]+
    |psi|^2 = 0.037

 k =  -0.2500000000  0.2500000000  0.0000000000
==== e(   1) =    -8.31311 eV ==== 
     psi = 0.341*[#   1]+0.341*[#   5]+0.159*[#   9]+0.154*[#  15]+0.001*[#  10]+
          +0.001*[#  13]+
    |psi|^2 = 1.000
==== e(   2) =    -7.60145 eV ==== 
     psi = 0.464*[#   1]+0.464*[#   5]+0.022*[#  10]+0.022*[#  13]+0.010*[#  16]+
          +0.010*[#  19]+
    |psi|^2 = 0.996
==== e(   3) =     3.09188 eV ==== 
     psi = 0.161*[#  11]+0.161*[#  12]+0.161*[#  14]+0.067*[#   2]+0.067*[#   3]+
          +0.067*[#   4]+0.067*[#   6]+0.067*[#   7]+0.067*[#   8]+0.043*[#  15]+
          +0.029*[#   9]+0.011*[#  10]+0.011*[#  13]+0.006*[#  17]+0.006*[#  18]+
          +0.006*[#  20]+
    |psi|^2 = 0.999
==== e(   4) =     4.02125 eV ==== 
     psi = 0.206*[#  10]+0.206*[#  13]+0.080*[#  11]+0.080*[#  12]+0.080*[#  14]+
          +0.054*[#   2]+0.054*[#   3]+0.054*[#   4]+0.054*[#   6]+0.054*[#   7]+
          +0.054*[#   8]+0.006*[#   1]+0.006*[#   5]+0.002*[#  17]+0.002*[#  18]+
          +0.002*[#  20]+
    |psi|^2 = 0.991
==== e(   5) =     4.34769 eV ==== 
     psi = 0.322*[#  10]+0.322*[#  13]+0.051*[#   2]+0.051*[#   3]+0.051*[#   4]+
          +0.051*[#   6]+0.051*[#   7]+0.051*[#   8]+0.009*[#  11]+0.009*[#  12]+
          +0.009*[#  14]+0.006*[#   9]+0.003*[#  16]+0.003*[#  19]+0.002*[#  17]+
          +0.002*[#  18]+0.002*[#  20]+0.002*[#  15]+
    |psi|^2 = 0.999
==== e(   6) =     5.25994 eV ==== 
     psi = 0.166*[#  11]+0.166*[#  12]+0.166*[#  14]+0.062*[#   2]+0.062*[#   3]+
          +0.062*[#   4]+0.062*[#   6]+0.062*[#   7]+0.062*[#   8]+0.046*[#   9]+
          +0.017*[#   1]+0.017*[#   5]+0.012*[#  16]+0.012*[#  19]+0.008*[#  15]+
          +0.006*[#  17]+0.006*[#  18]+0.006*[#  20]+
    |psi|^2 = 0.998
==== e(   7) =     5.40527 eV ==== 
     psi = 0.184*[#  11]+0.184*[#  12]+0.184*[#  14]+0.114*[#  10]+0.114*[#  13]+
          +0.030*[#   2]+0.030*[#   3]+0.030*[#   4]+0.030*[#   6]+0.030*[#   7]+
          +0.030*[#   8]+0.007*[#  16]+0.007*[#  19]+0.005*[#   1]+0.005*[#   5]+
          +0.005*[#  17]+0.005*[#  18]+0.005*[#  20]+
    |psi|^2 = 0.998
==== e(   8) =     6.54247 eV ==== 
     psi = 0.187*[#  11]+0.187*[#  12]+0.187*[#  14]+0.059*[#   9]+0.055*[#   2]+
          +0.055*[#   3]+0.055*[#   4]+0.055*[#   6]+0.055*[#   7]+0.055*[#   8]+
          +0.016*[#  15]+0.008*[#  17]+0.008*[#  18]+0.008*[#  20]+0.002*[#   1]+
          +0.002*[#   5]+0.002*[#  10]+0.002*[#  13]+0.001*[#  16]+0.001*[#  19]+
    |psi|^2 = 0.996
==== e(   9) =     6.91677 eV ==== 
     psi = 0.129*[#   2]+0.129*[#   3]+0.129*[#   4]+0.129*[#   6]+0.129*[#   7]+
          +0.129*[#   8]+0.035*[#  16]+0.035*[#  19]+0.021*[#  10]+0.021*[#  13]+
          +0.020*[#  17]+0.020*[#  18]+0.020*[#  20]+0.012*[#  11]+0.012*[#  12]+
          +0.012*[#  14]+
    |psi|^2 = 0.982
==== e(  10) =     7.31693 eV ==== 
     psi = 0.142*[#  11]+0.142*[#  12]+0.142*[#  14]+0.072*[#   2]+0.072*[#   3]+
          +0.072*[#   4]+0.072*[#   6]+0.072*[#   7]+0.072*[#   8]+0.056*[#  15]+
          +0.014*[#  16]+0.014*[#  19]+0.014*[#   1]+0.014*[#   5]+0.009*[#   9]+
          +0.003*[#  10]+0.003*[#  13]+0.002*[#  17]+0.002*[#  18]+0.002*[#  20]+
    |psi|^2 = 0.992
[...]
==== e(   3) =     3.57932 eV ==== 
     psi = 0.208*[#  17]+0.208*[#  18]+0.208*[#  20]+0.048*[#   2]+0.048*[#   3]+
          +0.048*[#   4]+0.048*[#   6]+0.048*[#   7]+0.048*[#   8]+0.041*[#  15]+
          +0.014*[#   1]+0.014*[#   5]+0.004*[#   9]+0.003*[#  10]+0.003*[#  13]+
          +0.003*[#  16]+0.003*[#  19]+
    |psi|^2 = 0.998
==== e(   4) =     3.87257 eV ==== 
     psi = 0.232*[#  16]+0.232*[#  19]+0.054*[#  17]+0.054*[#  18]+0.054*[#  20]+
          +0.053*[#   2]+0.053*[#   3]+0.053*[#   4]+0.053*[#   6]+0.053*[#   7]+
          +0.053*[#   8]+0.047*[#   9]+0.002*[#   1]+0.002*[#   5]+
    |psi|^2 = 0.999
==== e(   5) =     4.30775 eV ==== 
     psi = 0.327*[#  16]+0.327*[#  19]+0.041*[#   2]+0.041*[#   3]+0.041*[#   4]+
          +0.041*[#   6]+0.041*[#   7]+0.041*[#   8]+0.032*[#  17]+0.032*[#  18]+
          +0.032*[#  20]+
    |psi|^2 = 1.000
==== e(   6) =     5.66665 eV ==== 
     psi = 0.194*[#  17]+0.194*[#  18]+0.194*[#  20]+0.059*[#  16]+0.059*[#  19]+
          +0.039*[#   2]+0.039*[#   3]+0.039*[#   4]+0.039*[#   6]+0.039*[#   7]+
          +0.039*[#   8]+0.024*[#  15]+0.009*[#  10]+0.009*[#  13]+0.005*[#   1]+
          +0.005*[#   5]+0.003*[#  11]+0.003*[#  12]+0.003*[#  14]+
    |psi|^2 = 0.998
==== e(   7) =     5.93558 eV ==== 
     psi = 0.263*[#  17]+0.263*[#  18]+0.263*[#  20]+0.045*[#  16]+0.045*[#  19]+
          +0.018*[#   2]+0.018*[#   3]+0.018*[#   4]+0.018*[#   6]+0.018*[#   7]+
          +0.018*[#   8]+0.007*[#  10]+0.007*[#  13]+
    |psi|^2 = 0.999
==== e(   8) =     6.24607 eV ==== 
     psi = 0.116*[#   2]+0.116*[#   3]+0.116*[#   4]+0.116*[#   6]+0.116*[#   7]+
          +0.116*[#   8]+0.078*[#   9]+0.029*[#  16]+0.029*[#  19]+0.023*[#   1]+
          +0.023*[#   5]+0.017*[#  17]+0.017*[#  18]+0.017*[#  20]+0.017*[#  11]+
          +0.017*[#  12]+0.017*[#  14]+0.005*[#  10]+0.005*[#  13]+0.003*[#  15]+
    |psi|^2 = 0.991
==== e(   9) =     6.55049 eV ==== 
     psi = 0.127*[#  17]+0.127*[#  18]+0.127*[#  20]+0.084*[#  15]+0.062*[#   2]+
          +0.062*[#   3]+0.062*[#   4]+0.062*[#   6]+0.062*[#   7]+0.062*[#   8]+
          +0.039*[#  16]+0.039*[#  19]+0.017*[#   1]+0.017*[#   5]+0.010*[#  10]+
          +0.010*[#  13]+0.009*[#  11]+0.009*[#  12]+0.009*[#  14]+0.001*[#   9]+
    |psi|^2 = 0.995
==== e(  10) =     7.56447 eV ==== 
     psi = 0.127*[#   2]+0.127*[#   3]+0.127*[#   4]+0.127*[#   6]+0.127*[#   7]+
          +0.127*[#   8]+0.051*[#  10]+0.051*[#  13]+0.034*[#  17]+0.034*[#  18]+
          +0.034*[#  20]+0.007*[#  11]+0.007*[#  12]+0.007*[#  14]+0.004*[#  16]+
          +0.004*[#  19]+
    |psi|^2 = 0.994
==== e(  11) =     8.05916 eV ==== 
     psi = 0.128*[#   2]+0.128*[#   3]+0.128*[#   4]+0.128*[#   6]+0.128*[#   7]+
          +0.128*[#   8]+0.057*[#  17]+0.057*[#  18]+0.057*[#  20]+0.012*[#  15]+
          +0.006*[#  10]+0.006*[#  13]+0.006*[#  11]+0.006*[#  12]+0.006*[#  14]+
          +0.002*[#   1]+0.002*[#   5]+0.001*[#   9]+
    |psi|^2 = 0.986
==== e(  12) =     8.86454 eV ==== 
     psi = 0.122*[#  16]+0.122*[#  19]+0.098*[#   2]+0.098*[#   3]+0.098*[#   4]+
          +0.098*[#   6]+0.098*[#   7]+0.098*[#   8]+0.029*[#  10]+0.029*[#  13]+
          +0.027*[#   9]+0.015*[#   1]+0.015*[#   5]+0.008*[#  11]+0.008*[#  12]+
          +0.008*[#  14]+0.006*[#  17]+0.006*[#  18]+0.006*[#  20]+
    |psi|^2 = 0.988
==== e(  13) =     9.40494 eV ==== 
     psi = 0.118*[#  16]+0.118*[#  19]+0.107*[#   2]+0.107*[#   3]+0.107*[#   4]+
          +0.107*[#   6]+0.107*[#   7]+0.107*[#   8]+0.022*[#  11]+0.022*[#  12]+
          +0.022*[#  14]+0.021*[#  10]+0.021*[#  13]+0.002*[#  17]+0.002*[#  18]+
          +0.002*[#  20]+
    |psi|^2 = 0.990
==== e(  14) =    10.85199 eV ==== 
     psi = 0.287*[#  11]+0.287*[#  12]+0.287*[#  14]+0.033*[#  10]+0.033*[#  13]+
          +0.009*[#   2]+0.009*[#   3]+0.009*[#   4]+0.009*[#   6]+0.009*[#   7]+
          +0.009*[#   8]+0.004*[#   9]+0.002*[#   1]+0.002*[#   5]+0.002*[#  17]+
          +0.002*[#  18]+0.002*[#  20]+0.002*[#  16]+0.002*[#  19]+
    |psi|^2 = 0.996
==== e(  15) =    11.04040 eV ==== 
     psi = 0.284*[#  11]+0.284*[#  12]+0.284*[#  14]+0.025*[#  10]+0.025*[#  13]+
          +0.014*[#   2]+0.014*[#   3]+0.014*[#   4]+0.014*[#   6]+0.014*[#   7]+
          +0.014*[#   8]+0.005*[#  16]+0.005*[#  19]+0.001*[#  17]+0.001*[#  18]+
          +0.001*[#  20]+
    |psi|^2 = 0.998
==== e(  16) =    13.45388 eV ==== 
     psi = 0.286*[#  11]+0.286*[#  12]+0.286*[#  14]+0.034*[#   9]+0.020*[#  10]+
          +0.020*[#  13]+0.009*[#  15]+0.006*[#   1]+0.006*[#   5]+0.006*[#   2]+
          +0.006*[#   3]+0.006*[#   4]+0.006*[#   6]+0.006*[#   7]+0.006*[#   8]+
    |psi|^2 = 0.990
==== e(  17) =    13.65288 eV ==== 
     psi = 0.291*[#  10]+0.291*[#  13]+0.143*[#  15]+0.039*[#   1]+0.039*[#   5]+
          +0.035*[#  11]+0.035*[#  12]+0.035*[#  14]+0.013*[#   2]+0.013*[#   3]+
          +0.013*[#   4]+0.013*[#   6]+0.013*[#   7]+0.013*[#   8]+0.002*[#   9]+
          +0.001*[#  16]+0.001*[#  19]+
    |psi|^2 = 0.993
==== e(  18) =    14.13271 eV ==== 
     psi = 0.394*[#  10]+0.394*[#  13]+0.024*[#   2]+0.024*[#   3]+0.024*[#   4]+
          +0.024*[#   6]+0.024*[#   7]+0.024*[#   8]+0.019*[#  11]+0.019*[#  12]+
          +0.019*[#  14]+
    |psi|^2 = 0.994
==== e(  19) =    15.10903 eV ==== 
     psi = 0.262*[#   9]+0.211*[#  15]+0.068*[#   1]+0.068*[#   5]+0.047*[#  10]+
          +0.047*[#  13]+0.041*[#   2]+0.041*[#   3]+0.041*[#   4]+0.041*[#   6]+
          +0.041*[#   7]+0.041*[#   8]+0.007*[#  11]+0.007*[#  12]+0.007*[#  14]+
    |psi|^2 = 0.972
==== e(  20) =    15.74655 eV ==== 
     psi = 0.280*[#   9]+0.219*[#  15]+0.051*[#   1]+0.051*[#   5]+0.043*[#   2]+
          +0.043*[#   3]+0.043*[#   4]+0.043*[#   6]+0.043*[#   7]+0.043*[#   8]+
          +0.041*[#  10]+0.041*[#  13]+0.005*[#  11]+0.005*[#  12]+0.005*[#  14]+
          +0.002*[#  16]+0.002*[#  19]+
    |psi|^2 = 0.958
==== e(  21) =    22.12709 eV ==== 
     psi = 0.009*[#   9]+0.009*[#  15]+0.003*[#   2]+0.003*[#   3]+0.003*[#   4]+
          +0.003*[#   6]+0.003*[#   7]+0.003*[#   8]+0.001*[#   1]+0.001*[#   5]+
    |psi|^2 = 0.043
==== e(  22) =    22.88718 eV ==== 
     psi = 0.009*[#   9]+0.002*[#  11]+0.002*[#  12]+0.002*[#  14]+0.002*[#   2]+
          +0.002*[#   3]+0.002*[#   4]+0.002*[#   6]+0.002*[#   7]+0.002*[#   8]+
    |psi|^2 = 0.025
==== e(  23) =    24.68542 eV ==== 
     psi = 0.002*[#   9]+0.002*[#  15]+0.001*[#  10]+0.001*[#  13]+
    |psi|^2 = 0.013
==== e(  24) =    24.94142 eV ==== 
     psi = 0.005*[#   9]+
    |psi|^2 = 0.011

 k =  -0.5000000000 -0.7500000000  1.0000000000
==== e(   1) =    -8.10901 eV ==== 
     psi = 0.391*[#   1]+0.391*[#   5]+0.172*[#   9]+0.021*[#  16]+0.021*[#  19]+
    |psi|^2 = 0.999
==== e(   2) =    -7.88111 eV ==== 
     psi = 0.395*[#   1]+0.395*[#   5]+0.182*[#  15]+0.009*[#  10]+0.009*[#  13]+
          +0.001*[#  16]+0.001*[#  19]+
    |psi|^2 = 0.999
==== e(   3) =     3.52139 eV ==== 
     psi = 0.172*[#  16]+0.172*[#  19]+0.085*[#   9]+0.064*[#   2]+0.064*[#   3]+
          +0.064*[#   4]+0.064*[#   6]+0.064*[#   7]+0.064*[#   8]+0.059*[#  17]+
          +0.059*[#  18]+0.059*[#  20]+0.002*[#  11]+0.002*[#  12]+0.002*[#  14]+
          +0.001*[#   1]+0.001*[#   5]+0.001*[#  10]+0.001*[#  13]+
    |psi|^2 = 0.999
==== e(   4) =     3.95980 eV ==== 
     psi = 0.207*[#  17]+0.207*[#  18]+0.207*[#  20]+0.048*[#   2]+0.048*[#   3]+
          +0.048*[#   4]+0.048*[#   6]+0.048*[#   7]+0.048*[#   8]+0.044*[#  15]+
          +0.011*[#   1]+0.011*[#   5]+0.007*[#  16]+0.007*[#  19]+0.006*[#  10]+
          +0.006*[#  13]+
    |psi|^2 = 0.999
==== e(   5) =     4.39789 eV ==== 
     psi = 0.336*[#  16]+0.336*[#  19]+0.049*[#   2]+0.049*[#   3]+0.049*[#   4]+
          +0.049*[#   6]+0.049*[#   7]+0.049*[#   8]+0.012*[#  15]+0.006*[#  10]+
          +0.006*[#  13]+0.003*[#  17]+0.003*[#  18]+0.003*[#  20]+
    |psi|^2 = 0.999
==== e(   6) =     5.08663 eV ==== 
     psi = 0.150*[#  17]+0.150*[#  18]+0.150*[#  20]+0.069*[#   2]+0.069*[#   3]+
          +0.069*[#   4]+0.069*[#   6]+0.069*[#   7]+0.069*[#   8]+0.063*[#  15]+
          +0.012*[#  11]+0.012*[#  12]+0.012*[#  14]+0.010*[#   1]+0.010*[#   5]+
          +0.007*[#  10]+0.007*[#  13]+
    |psi|^2 = 0.997
==== e(   7) =     5.36808 eV ==== 
     psi = 0.189*[#  17]+0.189*[#  18]+0.189*[#  20]+0.094*[#  16]+0.094*[#  19]+
          +0.035*[#   2]+0.035*[#   3]+0.035*[#   4]+0.035*[#   6]+0.035*[#   7]+
          +0.035*[#   8]+0.007*[#  10]+0.007*[#  13]+0.005*[#   1]+0.005*[#   5]+
          +0.002*[#  11]+0.002*[#  12]+0.002*[#  14]+0.002*[#   9]+
    |psi|^2 = 0.998
==== e(   8) =     6.44960 eV ==== 
     psi = 0.228*[#  17]+0.228*[#  18]+0.228*[#  20]+0.049*[#  15]+0.032*[#   2]+
          +0.032*[#   3]+0.032*[#   4]+0.032*[#   6]+0.032*[#   7]+0.032*[#   8]+
          +0.012*[#  16]+0.012*[#  19]+0.009*[#  11]+0.009*[#  12]+0.009*[#  14]+
          +0.006*[#   1]+0.006*[#   5]+0.004*[#  10]+0.004*[#  13]+
    |psi|^2 = 0.997
==== e(   9) =     6.84214 eV ==== 
     psi = 0.125*[#   2]+0.125*[#   3]+0.125*[#   4]+0.125*[#   6]+0.125*[#   7]+
          +0.125*[#   8]+0.038*[#   9]+0.034*[#  16]+0.034*[#  19]+0.015*[#  11]+
          +0.015*[#  12]+0.015*[#  14]+0.014*[#  10]+0.014*[#  13]+0.014*[#   1]+
          +0.014*[#   5]+0.011*[#  17]+0.011*[#  18]+0.011*[#  20]+
    |psi|^2 = 0.989
==== e(  10) =     7.63118 eV ==== 
     psi = 0.110*[#   2]+0.110*[#   3]+0.110*[#   4]+0.110*[#   6]+0.110*[#   7]+
          +0.110*[#   8]+0.069*[#  17]+0.069*[#  18]+0.069*[#  20]+0.024*[#   9]+
          +0.018*[#  11]+0.018*[#  12]+0.018*[#  14]+0.014*[#  16]+0.014*[#  19]+
          +0.007*[#   1]+0.007*[#   5]+
    |psi|^2 = 0.987
==== e(  11) =     8.08424 eV ==== 
     psi = 0.120*[#   2]+0.120*[#   3]+0.120*[#   4]+0.120*[#   6]+0.120*[#   7]+
          +0.120*[#   8]+0.072*[#  17]+0.072*[#  18]+0.072*[#  20]+0.010*[#  11]+
          +0.010*[#  12]+0.010*[#  14]+0.005*[#  16]+0.005*[#  19]+0.003*[#  15]+
          +0.003*[#  10]+0.003*[#  13]+
    |psi|^2 = 0.982
==== e(  12) =     8.20693 eV ==== 
     psi = 0.158*[#  16]+0.158*[#  19]+0.081*[#   2]+0.081*[#   3]+0.081*[#   4]+
          +0.081*[#   6]+0.081*[#   7]+0.081*[#   8]+0.053*[#  10]+0.053*[#  13]+
          +0.027*[#   9]+0.023*[#   1]+0.023*[#   5]+0.002*[#  17]+0.002*[#  18]+
          +0.002*[#  20]+0.001*[#  11]+0.001*[#  12]+0.001*[#  14]+
    |psi|^2 = 0.992
==== e(  13) =     9.16520 eV ==== 
     psi = 0.129*[#  16]+0.129*[#  19]+0.100*[#   2]+0.100*[#   3]+0.100*[#   4]+
          +0.100*[#   6]+0.100*[#   7]+0.100*[#   8]+0.033*[#  10]+0.033*[#  13]+
          +0.019*[#  11]+0.019*[#  12]+0.019*[#  14]+0.002*[#  17]+0.002*[#  18]+
          +0.002*[#  20]+
    |psi|^2 = 0.987
==== e(  14) =    11.02682 eV ==== 
     psi = 0.263*[#  11]+0.263*[#  12]+0.263*[#  14]+0.024*[#   2]+0.024*[#   3]+
          +0.024*[#   4]+0.024*[#   6]+0.024*[#   7]+0.024*[#   8]+0.018*[#  10]+
          +0.018*[#  13]+0.005*[#  16]+0.005*[#  19]+0.003*[#  17]+0.003*[#  18]+
          +0.003*[#  20]+0.002*[#  15]+
    |psi|^2 = 0.996
==== e(  15) =    11.19393 eV ==== 
     psi = 0.296*[#  11]+0.296*[#  12]+0.296*[#  14]+0.022*[#  10]+0.022*[#  13]+
          +0.008*[#   9]+0.008*[#   2]+0.008*[#   3]+0.008*[#   4]+0.008*[#   6]+
          +0.008*[#   7]+0.008*[#   8]+0.002*[#  17]+0.002*[#  18]+0.002*[#  20]+
          +0.002*[#   1]+0.002*[#   5]+
    |psi|^2 = 0.997
==== e(  16) =    13.56567 eV ==== 
     psi = 0.349*[#  10]+0.349*[#  13]+0.126*[#  15]+0.043*[#   1]+0.043*[#   5]+
          +0.018*[#  11]+0.018*[#  12]+0.018*[#  14]+0.005*[#   2]+0.005*[#   3]+
          +0.005*[#   4]+0.005*[#   6]+0.005*[#   7]+0.005*[#   8]+0.001*[#  16]+
          +0.001*[#  19]+
    |psi|^2 = 0.994
==== e(  17) =    13.64475 eV ==== 
     psi = 0.311*[#  11]+0.311*[#  12]+0.311*[#  14]+0.009*[#   2]+0.009*[#   3]+
          +0.009*[#   4]+0.009*[#   6]+0.009*[#   7]+0.009*[#   8]+0.004*[#   9]+
    |psi|^2 = 0.995
==== e(  18) =    14.12764 eV ==== 
     psi = 0.393*[#  10]+0.393*[#  13]+0.021*[#   2]+0.021*[#   3]+0.021*[#   4]+
          +0.021*[#   6]+0.021*[#   7]+0.021*[#   8]+0.019*[#  11]+0.019*[#  12]+
          +0.019*[#  14]+0.010*[#   9]+0.004*[#   1]+0.004*[#   5]+
    |psi|^2 = 0.989
==== e(  19) =    16.31959 eV ==== 
     psi = 0.595*[#   9]+0.051*[#   1]+0.051*[#   5]+0.040*[#   2]+0.040*[#   3]+
          +0.040*[#   4]+0.040*[#   6]+0.040*[#   7]+0.040*[#   8]+0.007*[#  10]+
          +0.007*[#  13]+0.004*[#  16]+0.004*[#  19]+
    |psi|^2 = 0.956
==== e(  20) =    16.32147 eV ==== 
     psi = 0.506*[#  15]+0.063*[#  10]+0.063*[#  13]+0.046*[#   2]+0.046*[#   3]+
          +0.046*[#   4]+0.046*[#   6]+0.046*[#   7]+0.046*[#   8]+0.032*[#   1]+
          +0.032*[#   5]+
    |psi|^2 = 0.976
==== e(  21) =    22.30423 eV ==== 
     psi = 0.002*[#   2]+0.002*[#   3]+0.002*[#   4]+0.002*[#   6]+0.002*[#   7]+
          +0.002*[#   8]+
    |psi|^2 = 0.013
==== e(  22) =    22.65435 eV ==== 
     psi = 0.002*[#  11]+0.002*[#  12]+0.002*[#  14]+0.001*[#   2]+0.001*[#   3]+
          +0.001*[#   4]+0.001*[#   6]+0.001*[#   7]+0.001*[#   8]+
    |psi|^2 = 0.014
==== e(  23) =    23.02135 eV ==== 
     psi = 0.007*[#  15]+0.002*[#   2]+0.002*[#   3]+0.002*[#   4]+0.002*[#   6]+
          +0.002*[#   7]+0.002*[#   8]+0.001*[#  10]+0.001*[#  13]+
    |psi|^2 = 0.020
==== e(  24) =    23.25998 eV ==== 
     psi = 0.023*[#   9]+0.002*[#   2]+0.002*[#   3]+0.002*[#   4]+0.002*[#   6]+
          +0.002*[#   7]+0.002*[#   8]+0.001*[#   1]+0.001*[#   5]+
    |psi|^2 = 0.039

 k =  -0.2500000000 -0.2500000000 -0.2500000000
==== e(   1) =    -8.18442 eV ==== 
     psi = 0.362*[#   1]+0.362*[#   5]+0.271*[#  15]+
    |psi|^2 = 0.999
==== e(   2) =    -8.10571 eV ==== 
     psi = 0.368*[#   1]+0.368*[#   5]+0.262*[#   9]+
    |psi|^2 = 0.999
==== e(   3) =     3.39168 eV ==== 
     psi = 0.216*[#  17]+0.216*[#  18]+0.216*[#  20]+0.046*[#   2]+0.046*[#   3]+
          +0.046*[#   4]+0.046*[#   6]+0.046*[#   7]+0.046*[#   8]+0.039*[#  15]+
          +0.017*[#   1]+0.017*[#   5]+
    |psi|^2 = 0.998
==== e(   4) =     4.21808 eV ==== 
     psi = 0.310*[#  16]+0.310*[#  19]+0.048*[#  17]+0.048*[#  18]+0.048*[#  20]+
          +0.039*[#   2]+0.039*[#   3]+0.039*[#   4]+0.039*[#   6]+0.039*[#   7]+
          +0.039*[#   8]+
    |psi|^2 = 1.000
==== e(   5) =     4.21808 eV ==== 
     psi = 0.310*[#  16]+0.310*[#  19]+0.048*[#  17]+0.048*[#  18]+0.048*[#  20]+
          +0.039*[#   2]+0.039*[#   3]+0.039*[#   4]+0.039*[#   6]+0.039*[#   7]+
          +0.039*[#   8]+
    |psi|^2 = 1.000
==== e(   6) =     5.73402 eV ==== 
     psi = 0.127*[#   9]+0.125*[#   2]+0.125*[#   3]+0.125*[#   4]+0.125*[#   6]+
          +0.125*[#   7]+0.125*[#   8]+0.030*[#   1]+0.030*[#   5]+0.018*[#  11]+
          +0.018*[#  12]+0.018*[#  14]+
    |psi|^2 = 0.992
==== e(   7) =     6.11271 eV ==== 
     psi = 0.280*[#  17]+0.280*[#  18]+0.280*[#  20]+0.077*[#  16]+0.077*[#  19]+
          +0.001*[#   2]+0.001*[#   3]+0.001*[#   4]+0.001*[#   6]+0.001*[#   7]+
          +0.001*[#   8]+
    |psi|^2 = 0.999
==== e(   8) =     6.11271 eV ==== 
     psi = 0.280*[#  17]+0.280*[#  18]+0.280*[#  20]+0.077*[#  16]+0.077*[#  19]+
          +0.001*[#   2]+0.001*[#   3]+0.001*[#   4]+0.001*[#   6]+0.001*[#   7]+
          +0.001*[#   8]+
    |psi|^2 = 0.999
==== e(   9) =     7.19584 eV ==== 
     psi = 0.124*[#  15]+0.115*[#  17]+0.115*[#  18]+0.115*[#  20]+0.079*[#   2]+
          +0.079*[#   3]+0.079*[#   4]+0.079*[#   6]+0.079*[#   7]+0.079*[#   8]+
          +0.024*[#   1]+0.024*[#   5]+
    |psi|^2 = 0.990
==== e(  10) =     7.41053 eV ==== 
     psi = 0.141*[#   2]+0.141*[#   3]+0.141*[#   4]+0.141*[#   6]+0.141*[#   7]+
          +0.141*[#   8]+0.065*[#  10]+0.065*[#  13]+0.007*[#  11]+0.007*[#  12]+
          +0.007*[#  14]+
    |psi|^2 = 0.996
==== e(  11) =     7.41053 eV ==== 
     psi = 0.141*[#   2]+0.141*[#   3]+0.141*[#   4]+0.141*[#   6]+0.141*[#   7]+
          +0.141*[#   8]+0.065*[#  10]+0.065*[#  13]+0.007*[#  11]+0.007*[#  12]+
          +0.007*[#  14]+
    |psi|^2 = 0.996
==== e(  12) =     9.65992 eV ==== 
     psi = 0.125*[#   2]+0.125*[#   3]+0.125*[#   4]+0.125*[#   6]+0.125*[#   7]+
          +0.125*[#   8]+0.111*[#  16]+0.111*[#  19]+0.005*[#  17]+0.005*[#  18]+
          +0.005*[#  20]+
    |psi|^2 = 0.989
==== e(  13) =     9.65992 eV ==== 
     psi = 0.125*[#   2]+0.125*[#   3]+0.125*[#   4]+0.125*[#   6]+0.125*[#   7]+
          +0.125*[#   8]+0.111*[#  16]+0.111*[#  19]+0.005*[#  17]+0.005*[#  18]+
          +0.005*[#  20]+
    |psi|^2 = 0.989
==== e(  14) =    10.79508 eV ==== 
     psi = 0.305*[#  11]+0.305*[#  12]+0.305*[#  14]+0.041*[#  10]+0.041*[#  13]+
    |psi|^2 = 0.998
==== e(  15) =    10.79508 eV ==== 
     psi = 0.305*[#  11]+0.305*[#  12]+0.305*[#  14]+0.041*[#  10]+0.041*[#  13]+
    |psi|^2 = 0.998
==== e(  16) =    13.22255 eV ==== 
     psi = 0.276*[#  11]+0.276*[#  12]+0.276*[#  14]+0.112*[#   9]+0.018*[#   1]+
          +0.018*[#   5]+
    |psi|^2 = 0.981
==== e(  17) =    14.09473 eV ==== 
     psi = 0.392*[#  10]+0.392*[#  13]+0.024*[#   2]+0.024*[#   3]+0.024*[#   4]+
          +0.024*[#   6]+0.024*[#   7]+0.024*[#   8]+0.021*[#  11]+0.021*[#  12]+
          +0.021*[#  14]+
    |psi|^2 = 0.994
==== e(  18) =    14.09473 eV ==== 
     psi = 0.392*[#  10]+0.392*[#  13]+0.024*[#   2]+0.024*[#   3]+0.024*[#   4]+
          +0.024*[#   6]+0.024*[#   7]+0.024*[#   8]+0.021*[#  11]+0.021*[#  12]+
          +0.021*[#  14]+
    |psi|^2 = 0.994
==== e(  19) =    14.46460 eV ==== 
     psi = 0.552*[#  15]+0.093*[#   1]+0.093*[#   5]+0.038*[#   2]+0.038*[#   3]+
          +0.038*[#   4]+0.038*[#   6]+0.038*[#   7]+0.038*[#   8]+
    |psi|^2 = 0.967
==== e(  20) =    14.92970 eV ==== 
     psi = 0.471*[#   9]+0.080*[#   1]+0.080*[#   5]+0.037*[#   2]+0.037*[#   3]+
          +0.037*[#   4]+0.037*[#   6]+0.037*[#   7]+0.037*[#   8]+0.036*[#  11]+
          +0.036*[#  12]+0.036*[#  14]+
    |psi|^2 = 0.963
==== e(  21) =    22.16081 eV ==== 
     psi = 0.012*[#  15]+0.003*[#   2]+0.003*[#   3]+0.003*[#   4]+0.003*[#   6]+
          +0.003*[#   7]+0.003*[#   8]+0.001*[#   1]+0.001*[#   5]+
    |psi|^2 = 0.034
==== e(  22) =    22.77111 eV ==== 
     psi = 0.023*[#   9]+0.003*[#   2]+0.003*[#   3]+0.003*[#   4]+0.003*[#   6]+
          +0.003*[#   7]+0.003*[#   8]+0.002*[#   1]+0.002*[#   5]+0.002*[#  11]+
          +0.002*[#  12]+0.002*[#  14]+
    |psi|^2 = 0.050
==== e(  23) =    26.44915 eV ==== 
     psi = 0.001*[#  10]+0.001*[#  13]+
    |psi|^2 = 0.005
==== e(  24) =    26.44915 eV ==== 
     psi = 0.001*[#  10]+0.001*[#  13]+
    |psi|^2 = 0.005

Lowdin Charges: 

     Atom #   1: total charge =   7.0390, s =  1.8339, p =  5.2051, d =  0.0000, 
                 spin up      =   3.5194, s =  0.9170, p =  2.6025, d =  0.0000, 
                 spin down    =   3.5196, s =  0.9170, p =  2.6026, d =  0.0000, 
                 polarization =  -0.0002, s =  0.0000, p = -0.0002, d =  0.0000, 
     Atom #   2: total charge =   7.0390, s =  1.8339, p =  5.2051, d =  0.0000, 
                 spin up      =   3.5194, s =  0.9170, p =  2.6025, d =  0.0000, 
                 spin down    =   3.5196, s =  0.9170, p =  2.6026, d =  0.0000, 
                 polarization =  -0.0002, s =  0.0000, p = -0.0002, d =  0.0000, 
     Atom #   3: total charge =   6.8494, s =  0.4683, p =  0.0000, d =  6.3811, 
                 spin up      =   5.2033, s =  0.2388, p =  0.0000, d =  4.9645, 
                 spin down    =   1.6461, s =  0.2295, p =  0.0000, d =  1.4165, 
                 polarization =   3.5572, s =  0.0092, p =  0.0000, d =  3.5480, 
     Atom #   4: total charge =   6.8463, s =  0.4683, p =  0.0000, d =  6.3781, 
                 spin up      =   1.6430, s =  0.2295, p =  0.0000, d =  1.4135, 
                 spin down    =   5.2033, s =  0.2388, p =  0.0000, d =  4.9646, 
                 polarization =  -3.5603, s = -0.0092, p =  0.0000, d = -3.5511, 
     Spilling Parameter:   0.0081
