
     Program PWSCF v.5.0        starts on 15Jun2012 at 16:25:22 

     This program is part of the open-source Quantum ESPRESSO suite
     for quantum simulation of materials; please cite
         "P. Giannozzi et al., J. Phys.:Condens. Matter 21 395502 (2009);
          URL http://www.quantum-espresso.org", 
     in publications or presentations arising from this work. More details at
     http://www.quantum-espresso.org/quote.php

     Parallel version (MPI), running on     4 processors
     K-points division:     npool     =    4

     Current dimensions of program PWSCF are:
     Max number of different atomic species (ntypx) = 10
     Max number of k-points (npk) =  40000
     Max angular momentum in pseudopotentials (lmaxx) =  3
     Waiting for input...
     Reading input from standard input
               file O.pbe-rrkjus.UPF: wavefunction(s)  2S renormalized
               file Fe.pbe-nd-rrkjus.UPF: wavefunction(s)  4S renormalized
               file Fe.pbe-nd-rrkjus.UPF: wavefunction(s)  4S renormalized

     Atomic positions and unit cell read from directory:
     temp/feo.save/
 

     Subspace diagonalization in iterative solution of the eigenvalue problem:
     a serial algorithm will be used

 
     G-vector sticks info
     --------------------
     sticks:   dense  smooth     PW     G-vecs:    dense   smooth      PW
     Sum        1061     539    179                17255     6111    1219
 


     bravais-lattice index     =            0
     lattice parameter (alat)  =       8.1900  a.u.
     unit-cell volume          =     274.6766 (a.u.)^3
     number of atoms/cell      =            4
     number of atomic types    =            3
     number of electrons       =        28.00
     number of Kohn-Sham states=           24
     kinetic-energy cutoff     =      30.0000  Ry
     charge density cutoff     =     240.0000  Ry
     Exchange-correlation      =  SLA  PW   PBE  PBE ( 1 4 3 4 0)
     EXX-fraction              =        0.00

     celldm(1)=   8.190000  celldm(2)=   0.000000  celldm(3)=   0.000000
     celldm(4)=   0.000000  celldm(5)=   0.000000  celldm(6)=   0.000000

     crystal axes: (cart. coord. in units of alat)
               a(1) = (   0.500000   0.500000   1.000000 )  
               a(2) = (   0.500000   1.000000   0.500000 )  
               a(3) = (   1.000000   0.500000   0.500000 )  

     reciprocal axes: (cart. coord. in units 2 pi/alat)
               b(1) = ( -0.500000 -0.500000  1.500000 )  
               b(2) = ( -0.500000  1.500000 -0.500000 )  
               b(3) = (  1.500000 -0.500000 -0.500000 )  


     PseudoPot. # 1 for O  read from file:
     ../pseudo/O.pbe-rrkjus.UPF
     MD5 check sum: 390ba29e75625707450f3bd3f0eb6be9
     Pseudo is Ultrasoft, Zval =  6.0
     Generated by new atomic code, or converted to UPF format
     Using radial grid of 1269 points,  4 beta functions with: 
                l(1) =   0
                l(2) =   0
                l(3) =   1
                l(4) =   1
     Q(r) pseudized with 0 coefficients 


     PseudoPot. # 2 for Fe read from file:
     ../pseudo/Fe.pbe-nd-rrkjus.UPF
     MD5 check sum: 23c640529ef232ac9996b4ec1b0ce2fd
     Pseudo is Ultrasoft + core correction, Zval =  8.0
     Generated by new atomic code, or converted to UPF format
     Using radial grid of  957 points,  6 beta functions with: 
                l(1) =   0
                l(2) =   0
                l(3) =   1
                l(4) =   1
                l(5) =   2
                l(6) =   2
     Q(r) pseudized with 0 coefficients 


     PseudoPot. # 3 for Fe read from file:
     ../pseudo/Fe.pbe-nd-rrkjus.UPF
     MD5 check sum: 23c640529ef232ac9996b4ec1b0ce2fd
     Pseudo is Ultrasoft + core correction, Zval =  8.0
     Generated by new atomic code, or converted to UPF format
     Using radial grid of  957 points,  6 beta functions with: 
                l(1) =   0
                l(2) =   0
                l(3) =   1
                l(4) =   1
                l(5) =   2
                l(6) =   2
     Q(r) pseudized with 0 coefficients 


     atomic species   valence    mass     pseudopotential
        O              6.00     1.00000     O ( 1.00)
        Fe1            8.00     1.00000     Fe( 1.00)
        Fe2            8.00     1.00000     Fe( 1.00)

     Starting magnetic structure 
     atomic species   magnetization
        O            0.000
        Fe1          0.500
        Fe2         -0.500
 -----
     simplified LDA+U calculation, Hubbard_lmax = 2
     atomic species  L   Hubbard U  Hubbard alpha
        O            1    0.000000    0.000000
        Fe1          2    4.300000    0.000000
        Fe2          2    4.300000    0.000000
 -----

     12 Sym. Ops., with inversion, found



   Cartesian axes

     site n.     atom                  positions (alat units)
         1           O   tau(   1) = (   0.5000000   0.5000000   0.5000000  )
         2           O   tau(   2) = (   1.5000000   1.5000000   1.5000000  )
         3           Fe1 tau(   3) = (   0.0000000   0.0000000   0.0000000  )
         4           Fe2 tau(   4) = (   1.0000000   1.0000000   1.0000000  )

     number of k points=   130  Methfessel-Paxton smearing, width (Ry)=  0.0200

     Number of k-points >= 100: set verbosity='high' to print them.

     Dense  grid:    17255 G-vectors     FFT dimensions: (  50,  50,  50)

     Smooth grid:     6111 G-vectors     FFT dimensions: (  36,  36,  36)

     Largest allocated arrays     est. size (Mb)     dimensions
        Kohn-Sham Wavefunctions         0.29 Mb     (    780,   24)
        Atomic wavefunctions            0.24 Mb     (    780,   20)
        NL pseudopotentials             0.62 Mb     (    780,   52)
        Each V/rho on FFT grid          3.81 Mb     ( 125000,   2)
        Each G-vector array             0.13 Mb     (  17255)
        G-vector shells                 0.00 Mb     (    342)
     Largest temporary arrays     est. size (Mb)     dimensions
        Auxiliary wavefunctions         1.14 Mb     (    780,   96)
        Each subspace H/S matrix        0.14 Mb     (  96,  96)
        Each <psi_i|beta_j> matrix      0.02 Mb     (     52,   24)

     Check: negative/imaginary core charge=   -0.000003    0.000000

     The potential is recalculated from file :
     temp/feo.save/charge-density.dat

     Number of +U iterations with fixed ns =  0
     Starting occupations:
 --- enter write_ns ---
 LDA+U parameters:
U( 1)     =  0.00000000
alpha( 1) =  0.00000000
U( 2)     =  4.30000000
alpha( 2) =  0.00000000
U( 3)     =  4.30000000
alpha( 3) =  0.00000000
atom    1   Tr[ns(na)] (up, down, total) =   2.80479  2.80492  5.60971
   spin  1
    eigenvalues: 
  0.932  0.932  0.942
    eigenvectors:
  0.528  0.139  0.333
  0.471  0.196  0.333
  0.002  0.665  0.333
    occupations:
  0.935 -0.003 -0.003
 -0.003  0.935  0.003
 -0.003  0.003  0.935
   spin  2
    eigenvalues: 
  0.932  0.932  0.942
    eigenvectors:
  0.477  0.189  0.333
  0.522  0.145  0.333
  0.001  0.666  0.333
    occupations:
  0.935 -0.003 -0.003
 -0.003  0.935  0.003
 -0.003  0.003  0.935
atomic mag. moment =    -0.000121
atom    2   Tr[ns(na)] (up, down, total) =   2.80479  2.80492  5.60971
   spin  1
    eigenvalues: 
  0.932  0.932  0.942
    eigenvectors:
  0.409  0.258  0.333
  0.577  0.090  0.333
  0.014  0.652  0.333
    occupations:
  0.935 -0.003 -0.003
 -0.003  0.935  0.003
 -0.003  0.003  0.935
   spin  2
    eigenvalues: 
  0.932  0.932  0.942
    eigenvectors:
  0.387  0.279  0.333
  0.591  0.076  0.333
  0.021  0.645  0.333
    occupations:
  0.935 -0.003 -0.003
 -0.003  0.935  0.003
 -0.003  0.003  0.935
atomic mag. moment =    -0.000121
atom    3   Tr[ns(na)] (up, down, total) =   4.99045  1.73174  6.72219
   spin  1
    eigenvalues: 
  0.996  0.996  0.999  1.000  1.000
    eigenvectors:
  0.252  0.734  0.000  0.011  0.003
  0.002  0.007  0.333  0.001  0.656
  0.010  0.000  0.333  0.468  0.189
  0.734  0.252  0.000  0.003  0.011
  0.002  0.007  0.333  0.516  0.141
    occupations:
  0.996  0.000  0.000  0.000  0.000
  0.000  1.000  0.000  0.000  0.000
  0.000  0.000  1.000  0.000  0.000
  0.000  0.000  0.000  0.996  0.000
  0.000  0.000  0.000  0.000  1.000
   spin  2
    eigenvalues: 
  0.095  0.216  0.216  0.603  0.603
    eigenvectors:
  0.000  0.428  0.452  0.102  0.018
  0.333  0.076  0.005  0.009  0.577
  0.333  0.006  0.075  0.374  0.212
  0.000  0.452  0.428  0.018  0.102
  0.333  0.039  0.041  0.496  0.090
    occupations:
  0.263 -0.051 -0.051  0.000 -0.103
 -0.051  0.402 -0.154 -0.089  0.154
 -0.051 -0.154  0.402  0.089  0.154
  0.000 -0.089  0.089  0.263  0.000
 -0.103  0.154  0.154  0.000  0.402
atomic mag. moment =     3.258714
atom    4   Tr[ns(na)] (up, down, total) =   1.73173  4.99046  6.72219
   spin  1
    eigenvalues: 
  0.095  0.216  0.216  0.603  0.603
    eigenvectors:
  0.000  0.873  0.006  0.078  0.044
  0.333  0.026  0.055  0.008  0.577
  0.333  0.015  0.066  0.495  0.091
  0.000  0.006  0.873  0.044  0.078
  0.333  0.081  0.001  0.376  0.210
    occupations:
  0.263 -0.052 -0.052  0.000 -0.103
 -0.052  0.402 -0.154 -0.089  0.154
 -0.052 -0.154  0.402  0.089  0.154
  0.000 -0.089  0.089  0.263  0.000
 -0.103  0.154  0.154  0.000  0.402
   spin  2
    eigenvalues: 
  0.996  0.996  0.999  1.000  1.000
    eigenvectors:
  0.260  0.726  0.000  0.013  0.001
  0.010  0.000  0.333  0.040  0.617
  0.002  0.007  0.333  0.336  0.321
  0.726  0.260  0.000  0.001  0.013
  0.003  0.007  0.333  0.609  0.048
    occupations:
  0.996  0.000  0.000  0.000  0.000
  0.000  1.000  0.000  0.000  0.000
  0.000  0.000  1.000  0.000  0.000
  0.000  0.000  0.000  0.996  0.000
  0.000  0.000  0.000  0.000  1.000
atomic mag. moment =    -3.258736
N of occupied +U levels =  24.6637956
 --- exit write_ns ---
 Atomic wfc used for LDA+U Projector are NOT orthogonalized
     Starting wfc are   20 randomized atomic wfcs

     total cpu time spent up to now is        2.6 secs

     per-process dynamical memory:    27.0 Mb

     Band Structure Calculation
     Davidson diagonalization with overlap

     ethr =  3.57E-09,  avg # of iterations = 16.3

     total cpu time spent up to now is       31.5 secs

     End of band structure calculation

 ------ SPIN UP ------------


          k = 0.0000 0.0000 0.0000     band energies (ev):

    -8.6743  -7.5163   2.3613   4.1188   4.1188   6.0689   6.0689   6.6802
     8.1499   8.1499   8.1543   8.8854   8.8854  10.8764  10.8764  11.9565
    13.6238  14.2917  14.2917  15.8505  20.4197  24.3932  24.3932  26.8340

          k = 0.1875-0.0625-0.0625     band energies (ev):

    -8.5406  -7.5557   2.6409   4.0839   4.2189   5.7336   5.9329   6.5966
     7.4007   7.8292   8.0709   8.9425   9.0796  10.8266  11.0217  12.8738
    13.6628  14.1233  14.2607  16.7941  20.2873  23.2176  24.7541  25.3278

          k = 0.3750-0.1250-0.1250     band energies (ev):

    -8.2471  -7.5874   3.1846   4.1124   4.3863   4.6615   5.8035   6.4051
     6.6488   7.5021   7.7451   8.9485   9.1192  10.7817  11.3551  13.5819
    13.8806  14.2065  15.1082  18.5385  20.0150  21.3713  23.3561  25.4153

          k = 0.5625-0.1875-0.1875     band energies (ev):

    -8.0697  -7.4455   3.3920   3.5302   4.3912   4.7086   5.6622   6.0707
     6.2786   7.2223   7.6570   8.8119   9.3087  10.7380  11.6490  13.8498
    14.0611  14.1732  16.7057  19.2657  19.8318  20.8208  21.6551  23.3456

          k =-0.7500 0.2500 0.2500     band energies (ev):

    -8.0374  -7.3255   3.0345   3.7559   4.3496   4.4057   5.6894   6.2040
     6.5503   6.6946   7.5872   8.8850   9.3893  10.7154  11.7563  13.9297
    14.1652  14.2314  17.7738  18.2397  20.1139  20.6333  21.8883  22.0663

          k = 0.1250 0.1250-0.1250     band energies (ev):

    -8.5266  -7.5754   2.6860   4.0709   4.2340   5.7218   5.9306   6.5989
     7.3953   7.7416   7.8734   9.1389   9.1727  10.8057  11.0283  12.9364
    13.6483  14.1304  14.1864  16.7869  20.3170  23.3061  24.7812  25.0224

          k = 0.3125 0.0625-0.1875     band energies (ev):

    -8.2946  -7.6309   3.1420   4.0270   4.3549   5.2268   5.4002   6.5094
     6.9203   7.3912   8.0233   8.8062   9.1920  10.9683  11.1544  13.5386
    13.8594  14.1745  14.6502  17.9598  20.2297  22.0808  23.6335  25.0809

          k = 0.5000 0.0000-0.2500     band energies (ev):

    -8.0547  -7.5669   3.3993   3.9352   4.4194   4.5754   5.2700   6.1166
     6.6473   7.2350   8.0452   8.4645   9.1435  11.0204  11.4444  13.7243
    13.9423  14.2202  16.3181  19.1626  20.2501  20.9008  22.4808  23.1865

          k =-0.8125 0.4375 0.1875     band energies (ev):

    -7.9648  -7.4003   3.2897   3.6554   4.1440   4.8685   5.3301   5.6628
     6.7344   6.9237   7.8242   8.7858   9.0900  10.9859  11.6557  13.8939
    14.1003  14.2395  17.7701  18.9194  19.8836  21.1176  21.5302  21.8430

          k =-0.6250 0.3750 0.1250     band energies (ev):

    -7.9327  -7.4297   3.2362   3.7732   4.1524   4.8393   5.2719   5.6744
     6.6828   6.9674   7.7728   8.8267   9.1166  10.9775  11.6618  13.8974
    14.0389  14.3490  17.4961  18.9774  20.2762  20.8859  21.2318  22.2397

          k =-0.4375 0.3125 0.0625     band energies (ev):

    -8.0117  -7.6020   3.5158   3.8629   4.3631   4.5949   5.2779   6.0631
     6.6155   7.1975   7.9238   8.6908   9.1927  11.0024  11.4495  13.7311
    13.9839  14.3073  15.9552  19.6341  19.8769  20.9004  22.1920  23.6652

          k =-0.2500 0.2500 0.0000     band energies (ev):

    -8.3131  -7.6014   3.0919   4.0213   4.3477   5.2599   5.4053   6.5425
     6.9168   7.3169   8.1048   8.7768   9.2577  10.9639  11.1463  13.5733
    13.9588  14.1356  14.4299  18.1356  20.0134  22.0473  23.7455  24.9689

          k = 0.2500 0.2500-0.2500     band energies (ev):

    -8.1538  -7.6996   3.4535   3.8753   4.4216   4.5899   5.7693   6.3186
     6.7184   7.3436   7.6095   9.2880   9.3116  10.7452  11.3995  13.6707
    14.1077  14.1434  14.6572  18.0333  20.3390  21.9000  22.5437  25.5565

          k = 0.4375 0.1875-0.3125     band energies (ev):

    -7.9125  -7.7183   3.3934   4.0780   4.2137   4.5546   5.1736   6.2439
     6.7976   7.1615   7.6599   8.8647   9.2734  10.9868  11.5003  13.7403
    14.0150  14.2762  15.9001  18.3970  20.5531  21.5108  21.6595  24.3842

          k =-0.8750 0.6250 0.1250     band energies (ev):

    -7.7999  -7.5690   3.3561   3.8981   4.3585   4.5656   4.7153   5.8479
     6.8149   7.1012   7.6847   8.8422   9.0752  11.2336  11.5201  13.8420
    14.0204  14.3302  17.5084  18.9967  20.2161  20.9164  21.2119  22.2832

          k =-0.6875 0.5625 0.0625     band energies (ev):

    -7.7352  -7.5135   3.4896   3.7984   4.0715   4.6383   4.9501   5.4385
     6.4863   7.3613   7.7314   8.7553   9.0617  11.3150  11.5303  13.8685
    14.1027  14.3319  18.9084  19.0488  20.0264  20.4617  20.9995  21.2406

          k =-0.5000 0.5000 0.0000     band energies (ev):

    -7.7133  -7.6485   3.3705   4.0030   4.3694   4.6159   4.7903   5.5885
     6.7227   7.1172   7.9440   8.4896   9.1217  11.2901  11.4674  13.8319
    13.9460  14.5047  17.3451  19.4812  20.8358  20.8468  21.3214  21.7635

          k = 0.3750 0.3750-0.3750     band energies (ev):

    -7.8064  -7.7205   2.8488   4.1256   4.3743   4.3793   5.6811   6.0859
     6.8286   7.1722   7.3373   9.0895   9.3029  10.8147  11.7286  13.8402
    14.2618  14.3949  15.6806  17.7190  20.5101  20.9425  22.2212  24.9746

          k =-0.9375 0.8125 0.0625     band energies (ev):

    -7.7791  -7.5850   2.6794   4.1898   4.3259   4.5194   5.0782   6.2463
     6.8712   7.0544   7.3522   8.9752   9.2415  11.0009  11.7482  13.8871
    14.1446  14.4709  16.5634  17.8079  20.4223  20.6039  22.0870  23.6364

          k =-0.7500 0.7500 0.0000     band energies (ev):

    -7.6672  -7.5812   3.1725   4.0733   4.2090   4.5482   4.5788   5.8553
     6.5298   7.3926   7.4496   9.0293   9.0943  11.2424  11.6154  13.8616
    14.1364  14.3389  18.1511  18.6544  20.1568  20.5664  20.6949  22.1220

          k =-0.5000-0.5000 0.5000     band energies (ev):

    -7.8416  -7.5159   2.3203   4.1890   4.2960   4.5984   5.4278   6.5398
     6.9926   6.9969   7.1039   8.9621   9.2543  10.8963  11.8512  13.9353
    14.3852  14.5436  15.8513  17.2820  20.4893  20.5077  22.8126  24.3868

          k = 0.0625 0.0625 0.0625     band energies (ev):

    -8.6363  -7.5693   2.4782   4.1334   4.1334   6.0757   6.0757   6.6165
     7.9252   7.9765   7.9765   9.0611   9.0611  10.8649  10.8649  12.2540
    13.5686  14.2626  14.2626  15.8459  20.5026  24.5522  24.5522  26.2072

          k = 0.2500 0.0000 0.0000     band energies (ev):

    -8.4915  -7.6259   2.7875   4.0973   4.2284   5.7247   5.9366   6.5378
     7.0651   8.0916   8.1262   8.8563   8.8795  10.8567  11.0176  13.1044
    13.6162  14.2199  14.2973  16.6715  20.5010  23.3234  25.0038  25.2011

          k = 0.4375-0.0625-0.0625     band energies (ev):

    -8.2446  -7.6074   3.1563   4.2287   4.3826   4.6138   5.8257   6.2941
     6.8265   7.7098   7.8253   8.5112   8.9557  10.8517  11.3611  13.4761
    13.7838  14.2878  15.6119  18.0678  20.6183  21.3188  23.7503  24.8332

          k =-0.8750 0.3750 0.3750     band energies (ev):

    -8.0989  -7.4240   3.1639   3.6435   4.3801   4.7459   5.8886   6.1061
     6.1762   7.2580   7.8508   8.5458   9.1914  10.8031  11.6535  13.8520
    13.9406  14.2515  17.0428  18.5436  19.9886  21.4022  21.8651  22.8336

          k =-0.6875 0.3125 0.3125     band energies (ev):

    -8.0148  -7.3473   2.8901   3.7938   4.3412   4.5254   5.6439   6.2482
     6.5469   6.7366   7.5696   8.9353   9.3284  10.7394  11.7724  13.9307
    14.1973  14.2585  17.4654  18.0399  20.2185  20.6638  21.8374  22.5785

          k =-0.5000 0.2500 0.2500     band energies (ev):

    -7.9952  -7.5180   3.2827   3.6803   4.3941   4.6386   5.5869   6.0504
     6.3828   7.2300   7.4828   9.0896   9.3274  10.7109  11.6711  13.8532
    14.1431  14.2329  16.2392  18.7904  20.5460  20.6770  21.3278  24.1670

          k =-0.3125 0.1875 0.1875     band energies (ev):

    -8.2138  -7.6214   3.2947   3.9846   4.4022   4.6444   5.7807   6.4163
     6.6178   7.3760   7.6608   9.2449   9.2529  10.7379  11.3701  13.6637
    14.0694  14.1316  14.6889  18.4730  19.9531  21.5943  22.9113  25.4341

          k = 0.1875 0.1875-0.0625     band energies (ev):

    -8.4509  -7.6799   2.9129   4.0563   4.2658   5.6973   5.9307   6.5468
     6.9477   7.6765   8.0212   8.9821   9.3724  10.8022  11.0357  13.3199
    13.5818  14.1177  14.1849  16.6360  20.6185  23.5728  24.5323  25.0509

          k = 0.3750 0.1250-0.1250     band energies (ev):

    -8.2408  -7.7114   3.2744   4.0283   4.3714   5.1556   5.3870   6.4635
     6.9103   7.5414   7.8968   8.7219   9.1249  10.9870  11.1737  13.5009
    13.7599  14.1789  15.1278  17.5197  20.8110  22.1928  23.3614  25.3829

          k =-0.9375 0.5625 0.3125     band energies (ev):

    -8.0685  -7.5682   3.2953   3.9808   4.4503   4.5535   5.2199   6.3035
     6.6625   7.3207   7.9442   8.4306   9.0814  11.0366  11.4623  13.7275
    13.8623  14.2122  16.7007  18.3371  20.5708  21.4043  22.3411  22.9858

          k =-0.7500 0.5000 0.2500     band energies (ev):

    -7.9572  -7.4105   3.0662   3.7396   4.1914   4.8616   5.2591   5.8732
     6.8153   6.8716   7.7734   8.8575   9.0542  10.9947  11.6802  13.8863
    14.1707  14.2013  17.8141  18.1505  20.0122  20.9975  21.9332  22.1191

          k =-0.5625 0.4375 0.1875     band energies (ev):

    -7.8686  -7.4924   3.0152   3.9491   4.2218   4.7610   5.1725   5.8535
     6.6914   6.9926   7.6560   8.9271   9.1368  10.9720  11.6950  13.8962
    14.0358  14.4642  17.0548  18.5660  20.5537  20.6866  21.4575  22.8154

          k =-0.3750 0.3750 0.1250     band energies (ev):

    -7.9542  -7.6634   3.5165   3.9005   4.2946   4.5841   5.2307   6.1346
     6.6584   7.1804   7.7772   8.8606   9.2275  10.9871  11.4742  13.7364
    13.9948  14.3724  15.7663  19.0097  20.2730  21.1992  21.8699  24.1083

          k = 0.3125 0.3125-0.1875     band energies (ev):

    -8.0845  -7.7943   3.5256   3.8809   4.4329   4.5478   5.7775   6.2522
     6.8163   7.3683   7.6115   9.1465   9.2132  10.7958  11.4235  13.6433
    13.9548  14.1500  15.1331  17.5362  20.9537  22.0280  22.4788  25.5885

          k =-1.0000 0.7500 0.2500     band energies (ev):

    -7.9363  -7.7095   3.2815   4.1167   4.2768   4.5272   5.1401   6.3668
     6.8868   7.1992   7.5890   8.7621   9.2607  11.0070  11.5139  13.7457
    14.0107  14.1525  16.2835  17.8637  20.8082  21.3911  21.9792  24.1243

          k =-0.8125 0.6875 0.1875     band energies (ev):

    -7.8336  -7.5405   3.3789   3.7623   4.3668   4.4772   4.7791   5.9975
     6.8537   7.0896   7.5913   8.8990   9.1540  11.2076  11.5463  13.8375
    14.0912  14.2196  17.6782  18.5103  20.0866  20.7483  21.5267  22.3229

          k =-0.6250 0.6250 0.1250     band energies (ev):

    -7.7123  -7.5363   3.3325   3.9240   4.1345   4.5169   4.8723   5.6231
     6.5037   7.3672   7.6301   8.8102   9.1281  11.2776  11.5729  13.8658
    14.0941  14.3645  18.5508  18.8600  20.0547  20.4063  21.1477  21.5052

          k =-0.4375 0.5625 0.0625     band energies (ev):

    -7.7508  -7.6131   3.3622   3.9819   4.3669   4.6350   4.7138   5.6768
     6.7527   7.1131   7.8385   8.6270   9.1020  11.2697  11.4860  13.8379
    13.9633  14.4503  17.3893  19.3690  20.5412  20.9534  21.1783  21.9830

          k =-0.5625-0.5625 0.6875     band energies (ev):

    -7.9036  -7.6310   2.7547   4.0733   4.3638   4.4714   5.7613   6.1183
     6.8629   7.2438   7.3878   8.9643   9.1436  10.8822  11.7291  13.8289
    14.2079  14.3396  16.0243  17.4352  20.5503  20.9218  22.7477  24.4314

          k =-0.3750-0.6250 0.6250     band energies (ev):

    -7.8429  -7.5240   2.6862   4.0831   4.2687   4.6556   5.0942   6.2816
     6.8699   6.9960   7.4304   8.9677   9.1924  11.0120  11.7423  13.8816
    14.1736  14.3767  16.8088  17.6873  20.3244  20.6485  22.1963  23.3750

          k =-0.1875-0.6875 0.5625     band energies (ev):

    -7.6835  -7.5649   3.2156   4.0271   4.1979   4.4702   4.7255   5.7893
     6.5221   7.3815   7.5075   8.9327   9.1362  11.2513  11.6042  13.8630
    14.1151  14.3572  18.2522  18.7173  20.1230  20.4454  20.9258  21.9039

          k = 0.0000-0.7500 0.5000     band energies (ev):

    -7.7437  -7.5050   3.6220   3.6842   4.0460   4.7264   4.9442   5.3575
     6.4796   7.3616   7.7636   8.7625   9.0107  11.3374  11.5061  13.8698
    14.1176  14.3043  18.9920  19.2425  20.0447  20.5862  20.8291  21.0191

          k =-0.4375-0.4375 0.5625     band energies (ev):

    -7.8805  -7.4777   2.3998   4.0829   4.3033   4.6644   5.4540   6.5399
     6.7183   6.9451   7.3224   9.0279   9.1980  10.8666  11.8395  13.9354
    14.3534  14.4633  16.1325  17.3967  20.4480  20.5436  22.6486  24.1143

          k =-0.2500-0.5000 0.5000     band energies (ev):

    -7.7958  -7.5660   2.8021   4.1131   4.2895   4.6146   5.1076   6.0817
     6.7735   7.0136   7.4995   8.9784   9.1955  10.9811  11.7305  13.8928
    14.0815  14.5197  16.6698  18.1258  20.4996  20.6148  21.8569  23.3577

          k =-0.3125-0.3125 0.4375     band energies (ev):

    -7.8904  -7.6276   3.0455   3.9190   4.3868   4.5137   5.6208   6.0574
     6.5616   7.2738   7.3303   9.2382   9.2768  10.7414  11.7055  13.8505
    14.1796  14.3946  15.8008  18.1923  20.4763  21.0842  21.5291  24.8976

          k = 0.1250 0.1250 0.1250     band energies (ev):

    -8.5262  -7.7147   2.7922   4.1671   4.1671   6.0897   6.0897   6.3785
     7.5130   7.6982   7.6982   9.3527   9.3527  10.8371  10.8371  12.9233
    13.4815  14.1944  14.1944  15.7331  20.8152  24.9988  25.0108  25.0108

          k = 0.3125 0.0625 0.0625     band energies (ev):

    -8.3836  -7.7688   3.0855   4.0770   4.2573   5.6972   5.9383   6.4351
     6.7640   7.8972   8.1196   8.8087   9.0445  10.8794  11.0211  13.3556
    13.5418  14.2768  14.5598  16.3455  21.0069  23.6118  24.4662  25.5313

          k =-1.0000 0.5000 0.5000     band energies (ev):

    -8.2029  -7.6745   3.2040   4.2825   4.3937   4.5414   5.8340   6.2229
     6.9967   7.8336   7.8423   8.1980   8.8695  10.9048  11.3831  13.4531
    13.7252  14.3280  16.1181  17.3460  21.3008  21.6575  23.7753  23.8705

          k =-0.8125 0.4375 0.4375     band energies (ev):

    -8.0770  -7.4546   2.9373   3.7630   4.3679   4.7303   6.0131   6.1339
     6.2468   7.3255   7.8408   8.5480   9.0395  10.8702  11.6788  13.8481
    13.9182  14.3315  17.2190  17.5608  20.2681  21.5245  22.3108  22.9662

          k =-0.6250 0.3750 0.3750     band energies (ev):

    -7.9545  -7.4057   2.6166   3.9135   4.3218   4.6756   5.5385   6.4204
     6.5423   6.8378   7.4915   9.0632   9.1807  10.7999  11.8081  13.9331
    14.2754  14.3387  16.7773  17.6914  20.3549  20.6145  22.2244  23.3690

          k = 0.2500 0.2500 0.0000     band energies (ev):

    -8.3209  -7.8448   3.2583   4.0003   4.2964   5.6728   5.9322   6.4077
     6.6361   7.5617   8.1257   8.8516   9.4548  10.8210  11.0426  13.4894
    13.6682  14.0955  14.4681  16.2816  21.2456  23.6625  24.2314  25.5024

          k =-1.0625 0.6875 0.4375     band energies (ev):

    -8.1619  -7.8170   3.4357   3.9948   4.3887   5.1017   5.3728   6.4479
     6.8706   7.6245   7.9250   8.4452   9.1488  11.0146  11.1907  13.5259
    13.6873  14.1505  15.7026  16.9438  21.6598  22.4044  23.0417  24.3898

          k =-0.8750 0.6250 0.3750     band energies (ev):

    -8.0480  -7.6021   3.2333   4.0051   4.4558   4.5324   5.1696   6.5352
     6.6195   7.4298   7.6825   8.5363   9.0794  11.0443  11.4894  13.7760
    13.8032  14.2080  17.0519  17.5411  20.7440  21.8819  22.2388  22.8195

          k =-0.6875 0.5625 0.3125     band energies (ev):

    -7.9125  -7.4559   2.8262   3.8981   4.2368   4.7933   5.1604   6.1368
     6.8355   6.9070   7.6259   8.9566   9.0758  11.0065  11.7159  13.8813
    14.1612  14.2958  17.3668  17.7344  20.1887  20.7757  22.1650  22.7687

          k =-0.6250-0.6250 0.8750     band energies (ev):

    -8.0631  -7.8331   3.4317   4.0395   4.4289   4.5339   5.8001   6.2138
     6.9630   7.4009   7.6731   8.8282   9.0684  10.8631  11.4270  13.6087
    13.7781  14.2330  15.7900  17.0612  21.6466  21.9461  22.8615  24.1488

          k =-0.4375-0.6875 0.8125     band energies (ev):

    -7.9978  -7.6560   3.2256   4.0464   4.4133   4.5119   5.1398   6.4949
     6.7707   7.3868   7.5479   8.6410   9.1689  11.0332  11.5097  13.7636
    13.8908  14.1712  16.8251  17.4399  20.8781  21.4895  22.3994  23.2418

          k =-0.2500-0.7500 0.7500     band energies (ev):

    -7.8454  -7.5308   3.4067   3.6834   4.3872   4.4342   4.8059   6.0587
     6.8588   7.0867   7.5643   8.8856   9.2152  11.1991  11.5556  13.8348
    14.1368  14.1628  17.8165  18.2381  20.0587  20.6799  21.7752  22.1734

          k =-0.5000-0.5000 0.7500     band energies (ev):

    -8.0080  -7.5286   2.7873   3.9088   4.3616   4.6351   5.8781   6.1381
     6.5822   7.3842   7.5638   8.8452   8.9423  10.9032  11.7090  13.8287
    14.0217  14.3676  16.6880  17.3075  20.4591  21.1354  23.0318  23.3830

          k = 0.1875 0.1875 0.1875     band energies (ev):

    -8.3581  -7.9174   3.1846   4.2022   4.2022   5.9701   6.1042   6.1042
     7.2625   7.4882   7.4882   9.5770   9.5770  10.8089  10.8089  13.2429
    13.8807  14.1253  14.1253  15.3730  21.4453  23.7144  25.7162  25.7162

          k =-1.1250 0.6250 0.6250     band energies (ev):

    -8.2285  -7.9523   3.4393   3.9665   4.2902   5.6719   5.9368   6.2966
     6.5772   7.6879   8.0297   8.8687   9.2515  10.8793  11.0324  13.4768
    13.5251  14.2092  15.1263  15.7957  21.7941  23.3648  24.1073  25.7280

          k =-0.9375 0.5625 0.5625     band energies (ev):

    -8.1297  -7.7660   3.3054   4.2023   4.4125   4.5262   5.8236   6.2001
     7.0764   7.5359   7.7715   8.4612   8.9244  10.9092  11.4099  13.5276
    13.7019  14.3060  16.5510  16.5987  21.5281  22.7533  22.8485  23.3681

          k =-0.6875-0.6875 1.0625     band energies (ev):

    -8.1539  -8.0325   3.5784   3.8720   4.3068   5.6654   5.9342   6.2462
     6.5495   7.5647   8.0589   8.8642   9.4046  10.8539  11.0424  13.4559
    13.6537  14.1338  15.1093  15.7468  22.1271  22.8874  24.6852  24.9415

          k =-0.5000-0.7500 1.0000     band energies (ev):

    -8.1088  -7.8811   3.5210   3.9588   4.3967   5.0862   5.3667   6.4486
     6.8422   7.6314   8.0839   8.2062   9.1646  11.0288  11.1961  13.5663
    13.6469  14.1287  16.3199  16.3216  22.3043  22.6546  23.0211  23.2601

          k =-0.2500-0.2500-0.2500     band energies (ev):

    -8.1843  -8.1054   3.3907   4.2173   4.2173   5.7343   6.1109   6.1109
     7.1946   7.4110   7.4110   9.6597   9.6597  10.7970  10.7970  13.2244
    14.0958  14.0958  14.4644  14.9303  22.1607  22.7715  26.4488  26.4488

 ------ SPIN DOWN ----------


          k = 0.0000 0.0000 0.0000     band energies (ev):

    -8.6745  -7.5165   2.3618   4.1196   4.1196   6.0706   6.0706   6.6817
     8.1496   8.1496   8.1542   8.8856   8.8856  10.8744  10.8744  11.9564
    13.6215  14.2907  14.2907  15.8507  20.4196  24.3933  24.3933  26.8340

          k = 0.1875-0.0625-0.0625     band energies (ev):

    -8.5409  -7.5559   2.6414   4.0845   4.2198   5.7351   5.9343   6.5980
     7.4005   7.8292   8.0708   8.9427   9.0798  10.8249  11.0196  12.8736
    13.6607  14.1223  14.2597  16.7942  20.2871  23.2177  24.7542  25.3277

          k = 0.3750-0.1250-0.1250     band energies (ev):

    -8.2473  -7.5875   3.1852   4.1129   4.3874   4.6625   5.8045   6.4062
     6.6484   7.5030   7.7453   8.9489   9.1196  10.7801  11.3528  13.5803
    13.8788  14.2055  15.1078  18.5386  20.0148  21.3713  23.3559  25.4155

          k = 0.5625-0.1875-0.1875     band energies (ev):

    -8.0699  -7.4455   3.3923   3.5310   4.3926   4.7092   5.6624   6.0713
     6.2794   7.2225   7.6580   8.8125   9.3094  10.7363  11.6466  13.8477
    14.0599  14.1721  16.7055  19.2657  19.8317  20.8208  21.6548  23.3457

          k =-0.7500 0.2500 0.2500     band energies (ev):

    -8.0376  -7.3255   3.0350   3.7566   4.3510   4.4053   5.6915   6.2036
     6.5509   6.6948   7.5880   8.8858   9.3900  10.7136  11.7539  13.9272
    14.1642  14.2304  17.7738  18.2395  20.1140  20.6328  21.8884  22.0663

          k = 0.1250 0.1250-0.1250     band energies (ev):

    -8.5268  -7.5755   2.6866   4.0715   4.2348   5.7232   5.9321   6.6004
     7.3952   7.7416   7.8733   9.1391   9.1728  10.8038  11.0263  12.9362
    13.6461  14.1294  14.1854  16.7870  20.3169  23.3061  24.7813  25.0222

          k = 0.3125 0.0625-0.1875     band energies (ev):

    -8.2949  -7.6310   3.1426   4.0275   4.3560   5.2274   5.4017   6.5106
     6.9201   7.3917   8.0234   8.8066   9.1925  10.9665  11.1523  13.5371
    13.8579  14.1735  14.6498  17.9598  20.2296  22.0808  23.6334  25.0809

          k = 0.5000 0.0000-0.2500     band energies (ev):

    -8.0549  -7.5670   3.3997   3.9359   4.4205   4.5763   5.2710   6.1161
     6.6481   7.2357   8.0456   8.4653   9.1442  11.0185  11.4421  13.7227
    13.9406  14.2193  16.3178  19.1625  20.2502  20.9006  22.4807  23.1862

          k =-0.8125 0.4375 0.1875     band energies (ev):

    -7.9650  -7.4003   3.2901   3.6560   4.1450   4.8692   5.3314   5.6626
     6.7351   6.9241   7.8246   8.7867   9.0909  10.9840  11.6534  13.8915
    14.0992  14.2386  17.7699  18.9193  19.8835  21.1173  21.5302  21.8429

          k =-0.6250 0.3750 0.1250     band energies (ev):

    -7.9328  -7.4297   3.2368   3.7737   4.1534   4.8397   5.2732   5.6742
     6.6835   6.9679   7.7733   8.8275   9.1175  10.9756  11.6595  13.8951
    14.0378  14.3480  17.4960  18.9774  20.2760  20.8856  21.2317  22.2397

          k =-0.4375 0.3125 0.0625     band energies (ev):

    -8.0120  -7.6021   3.5166   3.8632   4.3640   4.5960   5.2789   6.0625
     6.6164   7.1983   7.9243   8.6914   9.1934  11.0005  11.4473  13.7293
    13.9824  14.3063  15.9550  19.6341  19.8769  20.9002  22.1919  23.6650

          k =-0.2500 0.2500 0.0000     band energies (ev):

    -8.3133  -7.6015   3.0925   4.0217   4.3487   5.2605   5.4068   6.5437
     6.9162   7.3176   8.1050   8.7772   9.2581  10.9621  11.1442  13.5715
    13.9575  14.1345  14.4294  18.1357  20.0133  22.0473  23.7455  24.9689

          k = 0.2500 0.2500-0.2500     band energies (ev):

    -8.1541  -7.6997   3.4542   3.8757   4.4228   4.5907   5.7702   6.3196
     6.7186   7.3441   7.6096   9.2884   9.3122  10.7434  11.3973  13.6685
    14.1066  14.1425  14.6569  18.0332  20.3390  21.9000  22.5434  25.5567

          k = 0.4375 0.1875-0.3125     band energies (ev):

    -7.9128  -7.7183   3.3938   4.0788   4.2142   4.5558   5.1746   6.2441
     6.7980   7.1623   7.6601   8.8656   9.2741  10.9849  11.4980  13.7383
    14.0137  14.2753  15.8999  18.3969  20.5532  21.5106  21.6592  24.3842

          k =-0.8750 0.6250 0.1250     band energies (ev):

    -7.8001  -7.5691   3.3565   3.8986   4.3596   4.5665   4.7160   5.8479
     6.8159   7.1017   7.6849   8.8432   9.0761  11.2315  11.5179  13.8399
    14.0191  14.3293  17.5082  18.9966  20.2161  20.9160  21.2117  22.2829

          k =-0.6875 0.5625 0.0625     band energies (ev):

    -7.7353  -7.5136   3.4902   3.7992   4.0720   4.6393   4.9506   5.4384
     6.4875   7.3617   7.7317   8.7563   9.0627  11.3129  11.5281  13.8661
    14.1017  14.3310  18.9082  19.0489  20.0263  20.4613  20.9994  21.2403

          k =-0.5000 0.5000 0.0000     band energies (ev):

    -7.7135  -7.6485   3.3713   4.0034   4.3703   4.6171   4.7908   5.5879
     6.7238   7.1177   7.9443   8.4907   9.1227  11.2879  11.4653  13.8302
    13.9443  14.5038  17.3449  19.4812  20.8358  20.8466  21.3212  21.7631

          k = 0.3750 0.3750-0.3750     band energies (ev):

    -7.8064  -7.7207   2.8489   4.1267   4.3757   4.3796   5.6822   6.0864
     6.8288   7.1729   7.3373   9.0904   9.3037  10.8128  11.7262  13.8379
    14.2608  14.3940  15.6804  17.7191  20.5102  20.9421  22.2210  24.9747

          k =-0.9375 0.8125 0.0625     band energies (ev):

    -7.7791  -7.5852   2.6795   4.1909   4.3272   4.5196   5.0793   6.2466
     6.8719   7.0547   7.3524   8.9762   9.2423  10.9989  11.7458  13.8848
    14.1436  14.4700  16.5632  17.8080  20.4221  20.6035  22.0868  23.6362

          k =-0.7500 0.7500 0.0000     band energies (ev):

    -7.6672  -7.5814   3.1729   4.0744   4.2099   4.5483   4.5796   5.8556
     6.5311   7.3929   7.4500   9.0302   9.0953  11.2404  11.6131  13.8592
    14.1355  14.3378  18.1509  18.6547  20.1563  20.5662  20.6946  22.1217

          k =-0.5000-0.5000 0.5000     band energies (ev):

    -7.8416  -7.5161   2.3204   4.1901   4.2975   4.5983   5.4295   6.5404
     6.9924   6.9968   7.1046   8.9632   9.2551  10.8943  11.8486  13.9329
    14.3843  14.5427  15.8512  17.2822  20.4889  20.5076  22.8123  24.3868

          k = 0.0625 0.0625 0.0625     band energies (ev):

    -8.6365  -7.5695   2.4788   4.1342   4.1342   6.0774   6.0774   6.6178
     7.9252   7.9762   7.9762   9.0613   9.0613  10.8629  10.8629  12.2539
    13.5665  14.2616  14.2616  15.8460  20.5024  24.5524  24.5524  26.2071

          k = 0.2500 0.0000 0.0000     band energies (ev):

    -8.4917  -7.6261   2.7881   4.0980   4.2292   5.7262   5.9380   6.5390
     7.0650   8.0915   8.1262   8.8564   8.8799  10.8550  11.0154  13.1040
    13.6141  14.2190  14.2964  16.6716  20.5008  23.3235  25.0040  25.2010

          k = 0.4375-0.0625-0.0625     band energies (ev):

    -8.2448  -7.6074   3.1568   4.2295   4.3838   4.6147   5.8265   6.2949
     6.8264   7.7109   7.8253   8.5115   8.9563  10.8501  11.3587  13.4750
    13.7817  14.2869  15.6115  18.0678  20.6182  21.3188  23.7501  24.8331

          k =-0.8750 0.3750 0.3750     band energies (ev):

    -8.0990  -7.4240   3.1639   3.6444   4.3815   4.7467   5.8889   6.1066
     6.1768   7.2582   7.8515   8.5465   9.1922  10.8014  11.6511  13.8499
    13.9394  14.2505  17.0427  18.5435  19.9886  21.4022  21.8648  22.8335

          k =-0.6875 0.3125 0.3125     band energies (ev):

    -8.0149  -7.3474   2.8905   3.7945   4.3426   4.5251   5.6458   6.2480
     6.5476   6.7367   7.5703   8.9360   9.3292  10.7376  11.7700  13.9282
    14.1963  14.2575  17.4653  18.0398  20.2184  20.6634  21.8374  22.5785

          k =-0.5000 0.2500 0.2500     band energies (ev):

    -7.9954  -7.5180   3.2832   3.6809   4.3954   4.6390   5.5873   6.0510
     6.3836   7.2303   7.4837   9.0902   9.3281  10.7091  11.6687  13.8509
    14.1421  14.2318  16.2390  18.7905  20.5459  20.6770  21.3274  24.1671

          k =-0.3125 0.1875 0.1875     band energies (ev):

    -8.2140  -7.6214   3.2954   3.9850   4.4033   4.6453   5.7816   6.4176
     6.6176   7.3768   7.6610   9.2454   9.2532  10.7361  11.3679  13.6616
    14.0682  14.1305  14.6886  18.4730  19.9530  21.5943  22.9110  25.4343

          k = 0.1875 0.1875-0.0625     band energies (ev):

    -8.4512  -7.6801   2.9135   4.0570   4.2666   5.6986   5.9323   6.5481
     6.9477   7.6763   8.0212   8.9824   9.3725  10.8003  11.0337  13.3197
    13.5798  14.1166  14.1839  16.6360  20.6184  23.5730  24.5321  25.0510

          k = 0.3750 0.1250-0.1250     band energies (ev):

    -8.2410  -7.7115   3.2749   4.0290   4.3725   5.1560   5.3885   6.4645
     6.9103   7.5416   7.8970   8.7224   9.1254  10.9851  11.1716  13.4997
    13.7581  14.1779  15.1274  17.5197  20.8110  22.1928  23.3612  25.3829

          k =-0.9375 0.5625 0.3125     band energies (ev):

    -8.0687  -7.5682   3.2955   3.9816   4.4516   4.5544   5.2209   6.3033
     6.6632   7.3213   7.9444   8.4315   9.0821  11.0347  11.4600  13.7262
    13.8606  14.2112  16.7004  18.3369  20.5708  21.4042  22.3410  22.9856

          k =-0.7500 0.5000 0.2500     band energies (ev):

    -7.9573  -7.4105   3.0664   3.7403   4.1926   4.8624   5.2601   5.8733
     6.8160   6.8720   7.7737   8.8584   9.0552  10.9927  11.6778  13.8839
    14.1697  14.2004  17.8141  18.1503  20.0120  20.9973  21.9332  22.1189

          k =-0.5625 0.4375 0.1875     band energies (ev):

    -7.8687  -7.4925   3.0156   3.9498   4.2229   4.7614   5.1737   5.8535
     6.6922   6.9930   7.6565   8.9279   9.1378  10.9701  11.6927  13.8939
    14.0346  14.4632  17.0546  18.5661  20.5535  20.6862  21.4574  22.8154

          k =-0.3750 0.3750 0.1250     band energies (ev):

    -7.9544  -7.6634   3.5172   3.9010   4.2953   4.5853   5.2317   6.1342
     6.6592   7.1812   7.7776   8.8613   9.2283  10.9851  11.4720  13.7345
    13.9933  14.3715  15.7661  19.0097  20.2730  21.1991  21.8697  24.1082

          k = 0.3125 0.3125-0.1875     band energies (ev):

    -8.0847  -7.7943   3.5259   3.8816   4.4341   4.5486   5.7783   6.2533
     6.8165   7.3686   7.6115   9.1471   9.2138  10.7939  11.4213  13.6412
    13.9540  14.1490  15.1328  17.5361  20.9538  22.0280  22.4785  25.5886

          k =-1.0000 0.7500 0.2500     band energies (ev):

    -7.9366  -7.7095   3.2817   4.1174   4.2777   4.5285   5.1410   6.3672
     6.8871   7.1997   7.5892   8.7631   9.2614  11.0050  11.5116  13.7437
    14.0097  14.1514  16.2832  17.8636  20.8084  21.3907  21.9790  24.1242

          k =-0.8125 0.6875 0.1875     band energies (ev):

    -7.8338  -7.5405   3.3791   3.7628   4.3679   4.4782   4.7800   5.9976
     6.8546   7.0901   7.5915   8.9000   9.1548  11.2055  11.5440  13.8353
    14.0902  14.2186  17.6782  18.5101  20.0868  20.7479  21.5266  22.3226

          k =-0.6250 0.6250 0.1250     band energies (ev):

    -7.7125  -7.5364   3.3330   3.9248   4.1352   4.5176   4.8728   5.6231
     6.5049   7.3675   7.6305   8.8111   9.1291  11.2755  11.5707  13.8634
    14.0931  14.3636  18.5506  18.8602  20.0544  20.4059  21.1476  21.5048

          k =-0.4375 0.5625 0.0625     band energies (ev):

    -7.7510  -7.6132   3.3629   3.9823   4.3679   4.6363   4.7141   5.6764
     6.7537   7.1136   7.8388   8.6280   9.1030  11.2675  11.4839  13.8360
    13.9617  14.4494  17.3891  19.3690  20.5411  20.9534  21.1780  21.9827

          k =-0.5625-0.5625 0.6875     band energies (ev):

    -7.9037  -7.6311   2.7547   4.0741   4.3653   4.4722   5.7624   6.1188
     6.8631   7.2441   7.3877   8.9653   9.1444  10.8803  11.7266  13.8265
    14.2071  14.3387  16.0241  17.4352  20.5503  20.9214  22.7475  24.4315

          k =-0.3750-0.6250 0.6250     band energies (ev):

    -7.8430  -7.5241   2.6863   4.0838   4.2701   4.6562   5.0952   6.2820
     6.8705   6.9962   7.4305   8.9687   9.1933  11.0100  11.7399  13.8793
    14.1727  14.3758  16.8086  17.6873  20.3242  20.6482  22.1961  23.3749

          k =-0.1875-0.6875 0.5625     band energies (ev):

    -7.6836  -7.5650   3.2160   4.0281   4.1988   4.4707   4.7260   5.7895
     6.5233   7.3819   7.5079   8.9335   9.1371  11.2492  11.6019  13.8606
    14.1142  14.3563  18.2520  18.7176  20.1226  20.4451  20.9256  21.9036

          k = 0.0000-0.7500 0.5000     band energies (ev):

    -7.7439  -7.5051   3.6228   3.6849   4.0464   4.7275   4.9445   5.3573
     6.4809   7.3620   7.7639   8.7636   9.0117  11.3352  11.5040  13.8674
    14.1166  14.3034  18.9920  19.2423  20.0447  20.5857  20.8290  21.0187

          k =-0.4375-0.4375 0.5625     band energies (ev):

    -7.8805  -7.4779   2.3999   4.0839   4.3048   4.6645   5.4557   6.5406
     6.7184   6.9449   7.3229   9.0290   9.1989  10.8647  11.8370  13.9330
    14.3524  14.4624  16.1323  17.3969  20.4477  20.5434  22.6483  24.1145

          k =-0.2500-0.5000 0.5000     band energies (ev):

    -7.7958  -7.5661   2.8024   4.1141   4.2907   4.6148   5.1088   6.0819
     6.7743   7.0139   7.4999   8.9794   9.1963  10.9791  11.7281  13.8905
    14.0804  14.5188  16.6696  18.1260  20.4995  20.6144  21.8567  23.3577

          k =-0.3125-0.3125 0.4375     band energies (ev):

    -7.8905  -7.6278   3.0458   3.9198   4.3882   4.5140   5.6215   6.0579
     6.5621   7.2740   7.3311   9.2390   9.2775  10.7396  11.7031  13.8482
    14.1786  14.3936  15.8007  18.1924  20.4763  21.0838  21.5289  24.8977

          k = 0.1250 0.1250 0.1250     band energies (ev):

    -8.5264  -7.7149   2.7929   4.1679   4.1679   6.0914   6.0914   6.3793
     7.5135   7.6978   7.6978   9.3529   9.3529  10.8351  10.8351  12.9232
    13.4796  14.1934  14.1934  15.7330  20.8150  24.9987  25.0110  25.0110

          k = 0.3125 0.0625 0.0625     band energies (ev):

    -8.3838  -7.7690   3.0861   4.0778   4.2582   5.6986   5.9397   6.4360
     6.7641   7.8970   8.1198   8.8088   9.0449  10.8778  11.0189  13.3549
    13.5398  14.2759  14.5591  16.3454  21.0068  23.6119  24.4660  25.5314

          k =-1.0000 0.5000 0.5000     band energies (ev):

    -8.2031  -7.6745   3.2043   4.2835   4.3949   4.5422   5.8349   6.2237
     6.9965   7.8344   7.8422   8.1984   8.8703  10.9032  11.3808  13.4522
    13.7229  14.3270  16.1178  17.3459  21.3006  21.6576  23.7751  23.8705

          k =-0.8125 0.4375 0.4375     band energies (ev):

    -8.0772  -7.4546   2.9373   3.7639   4.3693   4.7313   6.0144   6.1345
     6.2466   7.3255   7.8411   8.5489   9.0404  10.8685  11.6763  13.8457
    13.9174  14.3305  17.2188  17.5607  20.2680  21.5243  22.3108  22.9661

          k =-0.6250 0.3750 0.3750     band energies (ev):

    -7.9546  -7.4058   2.6168   3.9143   4.3232   4.6756   5.5401   6.4204
     6.5430   6.8378   7.4921   9.0640   9.1816  10.7981  11.8056  13.9306
    14.2744  14.3378  16.7772  17.6915  20.3546  20.6143  22.2243  23.3692

          k = 0.2500 0.2500 0.0000     band energies (ev):

    -8.3212  -7.8449   3.2590   4.0010   4.2973   5.6740   5.9337   6.4081
     6.6368   7.5615   8.1258   8.8520   9.4550  10.8190  11.0407  13.4874
    13.6677  14.0944  14.4674  16.2815  21.2455  23.6626  24.2312  25.5025

          k =-1.0625 0.6875 0.4375     band energies (ev):

    -8.1621  -7.8171   3.4361   3.9956   4.3898   5.1021   5.3743   6.4488
     6.8706   7.6244   7.9255   8.4457   9.1494  11.0126  11.1885  13.5249
    13.6854  14.1494  15.7023  16.9437  21.6597  22.4046  23.0414  24.3898

          k =-0.8750 0.6250 0.3750     band energies (ev):

    -8.0481  -7.6021   3.2333   4.0059   4.4569   4.5335   5.1705   6.5354
     6.6200   7.4300   7.6829   8.5372   9.0802  11.0423  11.4871  13.7745
    13.8017  14.2070  17.0517  17.5409  20.7440  21.8817  22.2388  22.8193

          k =-0.6875 0.5625 0.3125     band energies (ev):

    -7.9127  -7.4559   2.8264   3.8988   4.2381   4.7941   5.1614   6.1371
     6.8360   6.9074   7.6261   8.9575   9.0767  11.0045  11.7134  13.8790
    14.1603  14.2949  17.3666  17.7344  20.1885  20.7755  22.1649  22.7686

          k =-0.6250-0.6250 0.8750     band energies (ev):

    -8.0633  -7.8331   3.4319   4.0404   4.4302   4.5348   5.8009   6.2148
     6.9631   7.4013   7.6730   8.8288   9.0692  10.8612  11.4247  13.6071
    13.7768  14.2320  15.7897  17.0610  21.6468  21.9457  22.8613  24.1489

          k =-0.4375-0.6875 0.8125     band energies (ev):

    -7.9980  -7.6560   3.2257   4.0470   4.4142   4.5134   5.1407   6.4955
     6.7709   7.3869   7.5482   8.6419   9.1696  11.0312  11.5074  13.7616
    13.8900  14.1702  16.8250  17.4397  20.8782  21.4892  22.3992  23.2418

          k =-0.2500-0.7500 0.7500     band energies (ev):

    -7.8455  -7.5308   3.4067   3.6839   4.3883   4.4353   4.8068   6.0589
     6.8597   7.0871   7.5644   8.8865   9.2160  11.1971  11.5533  13.8325
    14.1360  14.1617  17.8167  18.2375  20.0589  20.6794  21.7753  22.1728

          k =-0.5000-0.5000 0.7500     band energies (ev):

    -8.0082  -7.5286   2.7873   3.9096   4.3630   4.6361   5.8792   6.1386
     6.5823   7.3841   7.5640   8.8461   8.9434  10.9014  11.7065  13.8264
    14.0209  14.3667  16.6878  17.3074  20.4590  21.1352  23.0316  23.3831

          k = 0.1875 0.1875 0.1875     band energies (ev):

    -8.3583  -7.9176   3.1854   4.2030   4.2030   5.9702   6.1060   6.1060
     7.2635   7.4878   7.4878   9.5772   9.5772  10.8069  10.8069  13.2413
    13.8803  14.1242  14.1242  15.3728  21.4453  23.7142  25.7164  25.7164

          k =-1.1250 0.6250 0.6250     band energies (ev):

    -8.2287  -7.9525   3.4401   3.9672   4.2911   5.6731   5.9382   6.2968
     6.5779   7.6876   8.0300   8.8689   9.2519  10.8775  11.0302  13.4748
    13.5242  14.2082  15.1259  15.7956  21.7940  23.3646  24.1074  25.7280

          k =-0.9375 0.5625 0.5625     band energies (ev):

    -8.1299  -7.7661   3.3056   4.2033   4.4138   4.5271   5.8244   6.2010
     7.0763   7.5364   7.7713   8.4618   8.9253  10.9074  11.4075  13.5268
    13.6998  14.3051  16.5509  16.5985  21.5280  22.7533  22.8485  23.3679

          k =-0.6875-0.6875 1.0625     band energies (ev):

    -8.1541  -8.0326   3.5793   3.8726   4.3078   5.6666   5.9356   6.2461
     6.5505   7.5645   8.0592   8.8645   9.4049  10.8520  11.0404  13.4539
    13.6529  14.1327  15.1090  15.7465  22.1271  22.8872  24.6854  24.9414

          k =-0.5000-0.7500 1.0000     band energies (ev):

    -8.1090  -7.8811   3.5214   3.9598   4.3979   5.0866   5.3681   6.4496
     6.8421   7.6312   8.0842   8.2069   9.1652  11.0268  11.1939  13.5657
    13.6448  14.1276  16.3196  16.3215  22.3042  22.6544  23.0214  23.2600

          k =-0.2500-0.2500-0.2500     band energies (ev):

    -8.1844  -8.1057   3.3917   4.2181   4.2181   5.7340   6.1127   6.1127
     7.1958   7.4105   7.4105   9.6599   9.6599  10.7951  10.7951  13.2225
    14.0947  14.0947  14.4646  14.9297  22.1608  22.7711  26.4491  26.4491

     the Fermi energy is    11.1899 ev

     Writing output data file feo.save
 
     init_run     :      2.30s CPU      2.42s WALL (       1 calls)
     electrons    :     27.85s CPU     28.94s WALL (       1 calls)

     Called by init_run:
     wfcinit      :      0.08s CPU      0.09s WALL (       1 calls)
     potinit      :      0.34s CPU      0.43s WALL (       1 calls)

     Called by electrons:
     c_bands      :     27.84s CPU     28.87s WALL (       1 calls)
     v_of_rho     :      0.30s CPU      0.35s WALL (       1 calls)
     newd         :      0.18s CPU      0.18s WALL (       1 calls)

     Called by c_bands:
     init_us_2    :      0.04s CPU      0.04s WALL (      66 calls)
     cegterg      :     25.05s CPU     25.97s WALL (      35 calls)

     Called by *egterg:
     h_psi        :     22.16s CPU     23.14s WALL (     600 calls)
     s_psi        :      0.46s CPU      0.43s WALL (     633 calls)
     g_psi        :      0.11s CPU      0.11s WALL (     532 calls)
     cdiaghg      :      2.09s CPU      2.09s WALL (     565 calls)

     Called by h_psi:
     add_vuspsi   :      0.42s CPU      0.42s WALL (     600 calls)

     General routines
     calbec       :      0.59s CPU      0.65s WALL (    1233 calls)
     fft          :      0.12s CPU      0.14s WALL (      23 calls)
     ffts         :      0.00s CPU      0.00s WALL (       2 calls)
     fftw         :     17.29s CPU     18.35s WALL (   16936 calls)
     interpolate  :      0.01s CPU      0.02s WALL (       2 calls)
     davcio       :      0.00s CPU      0.02s WALL (     132 calls)
 
     Parallel routines
     fft_scatter  :      0.97s CPU      1.30s WALL (   16961 calls)
     EXX routines
 
     PWSCF        :    30.63s CPU        31.91s WALL

 
   This run was terminated on:  16:25:54  15Jun2012            

=------------------------------------------------------------------------------=
   JOB DONE.
=------------------------------------------------------------------------------=
