
     Program PWSCF v.5.0        starts on 15Jun2012 at 16:24:48 

     This program is part of the open-source Quantum ESPRESSO suite
     for quantum simulation of materials; please cite
         "P. Giannozzi et al., J. Phys.:Condens. Matter 21 395502 (2009);
          URL http://www.quantum-espresso.org", 
     in publications or presentations arising from this work. More details at
     http://www.quantum-espresso.org/quote.php

     Parallel version (MPI), running on     4 processors
     K-points division:     npool     =    4

     Current dimensions of program PWSCF are:
     Max number of different atomic species (ntypx) = 10
     Max number of k-points (npk) =  40000
     Max angular momentum in pseudopotentials (lmaxx) =  3
     Waiting for input...
     Reading input from standard input
               file O.pbe-rrkjus.UPF: wavefunction(s)  2S renormalized
               file Fe.pbe-nd-rrkjus.UPF: wavefunction(s)  4S renormalized
               file Fe.pbe-nd-rrkjus.UPF: wavefunction(s)  4S renormalized

     Subspace diagonalization in iterative solution of the eigenvalue problem:
     a serial algorithm will be used

 
     G-vector sticks info
     --------------------
     sticks:   dense  smooth     PW     G-vecs:    dense   smooth      PW
     Sum        1061     539    171                17255     6111    1141
 


     bravais-lattice index     =            0
     lattice parameter (alat)  =       8.1900  a.u.
     unit-cell volume          =     274.6766 (a.u.)^3
     number of atoms/cell      =            4
     number of atomic types    =            3
     number of electrons       =        28.00
     number of Kohn-Sham states=           18
     kinetic-energy cutoff     =      30.0000  Ry
     charge density cutoff     =     240.0000  Ry
     convergence threshold     =      1.0E-06
     mixing beta               =       0.3000
     number of iterations used =            8  plain     mixing
     Exchange-correlation      =  SLA  PW   PBE  PBE ( 1 4 3 4 0)
     EXX-fraction              =        0.00

     celldm(1)=   8.190000  celldm(2)=   0.000000  celldm(3)=   0.000000
     celldm(4)=   0.000000  celldm(5)=   0.000000  celldm(6)=   0.000000

     crystal axes: (cart. coord. in units of alat)
               a(1) = (   0.500000   0.500000   1.000000 )  
               a(2) = (   0.500000   1.000000   0.500000 )  
               a(3) = (   1.000000   0.500000   0.500000 )  

     reciprocal axes: (cart. coord. in units 2 pi/alat)
               b(1) = ( -0.500000 -0.500000  1.500000 )  
               b(2) = ( -0.500000  1.500000 -0.500000 )  
               b(3) = (  1.500000 -0.500000 -0.500000 )  


     PseudoPot. # 1 for O  read from file:
     ../pseudo/O.pbe-rrkjus.UPF
     MD5 check sum: 390ba29e75625707450f3bd3f0eb6be9
     Pseudo is Ultrasoft, Zval =  6.0
     Generated by new atomic code, or converted to UPF format
     Using radial grid of 1269 points,  4 beta functions with: 
                l(1) =   0
                l(2) =   0
                l(3) =   1
                l(4) =   1
     Q(r) pseudized with 0 coefficients 


     PseudoPot. # 2 for Fe read from file:
     ../pseudo/Fe.pbe-nd-rrkjus.UPF
     MD5 check sum: 23c640529ef232ac9996b4ec1b0ce2fd
     Pseudo is Ultrasoft + core correction, Zval =  8.0
     Generated by new atomic code, or converted to UPF format
     Using radial grid of  957 points,  6 beta functions with: 
                l(1) =   0
                l(2) =   0
                l(3) =   1
                l(4) =   1
                l(5) =   2
                l(6) =   2
     Q(r) pseudized with 0 coefficients 


     PseudoPot. # 3 for Fe read from file:
     ../pseudo/Fe.pbe-nd-rrkjus.UPF
     MD5 check sum: 23c640529ef232ac9996b4ec1b0ce2fd
     Pseudo is Ultrasoft + core correction, Zval =  8.0
     Generated by new atomic code, or converted to UPF format
     Using radial grid of  957 points,  6 beta functions with: 
                l(1) =   0
                l(2) =   0
                l(3) =   1
                l(4) =   1
                l(5) =   2
                l(6) =   2
     Q(r) pseudized with 0 coefficients 


     atomic species   valence    mass     pseudopotential
        O              6.00     1.00000     O ( 1.00)
        Fe1            8.00     1.00000     Fe( 1.00)
        Fe2            8.00     1.00000     Fe( 1.00)

     Starting magnetic structure 
     atomic species   magnetization
        O            0.000
        Fe1          0.500
        Fe2         -0.500
 -----
     simplified LDA+U calculation, Hubbard_lmax = 2
     atomic species  L   Hubbard U  Hubbard alpha
        O            1    0.000000    0.000000
        Fe1          2    4.300000    0.000000
        Fe2          2    4.300000    0.000000
 -----

     12 Sym. Ops., with inversion, found



   Cartesian axes

     site n.     atom                  positions (alat units)
         1           O   tau(   1) = (   0.5000000   0.5000000   0.5000000  )
         2           O   tau(   2) = (   1.5000000   1.5000000   1.5000000  )
         3           Fe1 tau(   3) = (   0.0000000   0.0000000   0.0000000  )
         4           Fe2 tau(   4) = (   1.0000000   1.0000000   1.0000000  )

     number of k points=    26  Methfessel-Paxton smearing, width (Ry)=  0.0200
                       cart. coord. in units 2pi/alat
        k(    1) = (   0.0000000   0.0000000   0.0000000), wk =   0.0156250
        k(    2) = (   0.3750000  -0.1250000  -0.1250000), wk =   0.0937500
        k(    3) = (  -0.7500000   0.2500000   0.2500000), wk =   0.0468750
        k(    4) = (   0.2500000   0.2500000  -0.2500000), wk =   0.0937500
        k(    5) = (  -0.8750000   0.6250000   0.1250000), wk =   0.1875000
        k(    6) = (  -0.5000000   0.5000000   0.0000000), wk =   0.0937500
        k(    7) = (  -0.5000000  -0.5000000   0.5000000), wk =   0.0468750
        k(    8) = (   0.1250000   0.1250000   0.1250000), wk =   0.0312500
        k(    9) = (  -1.0000000   0.5000000   0.5000000), wk =   0.0937500
        k(   10) = (  -0.6250000   0.3750000   0.3750000), wk =   0.0937500
        k(   11) = (  -0.6250000  -0.6250000   0.8750000), wk =   0.0937500
        k(   12) = (  -0.2500000  -0.7500000   0.7500000), wk =   0.0937500
        k(   13) = (  -0.2500000  -0.2500000  -0.2500000), wk =   0.0156250
        k(   14) = (   0.0000000   0.0000000   0.0000000), wk =   0.0156250
        k(   15) = (   0.3750000  -0.1250000  -0.1250000), wk =   0.0937500
        k(   16) = (  -0.7500000   0.2500000   0.2500000), wk =   0.0468750
        k(   17) = (   0.2500000   0.2500000  -0.2500000), wk =   0.0937500
        k(   18) = (  -0.8750000   0.6250000   0.1250000), wk =   0.1875000
        k(   19) = (  -0.5000000   0.5000000   0.0000000), wk =   0.0937500
        k(   20) = (  -0.5000000  -0.5000000   0.5000000), wk =   0.0468750
        k(   21) = (   0.1250000   0.1250000   0.1250000), wk =   0.0312500
        k(   22) = (  -1.0000000   0.5000000   0.5000000), wk =   0.0937500
        k(   23) = (  -0.6250000   0.3750000   0.3750000), wk =   0.0937500
        k(   24) = (  -0.6250000  -0.6250000   0.8750000), wk =   0.0937500
        k(   25) = (  -0.2500000  -0.7500000   0.7500000), wk =   0.0937500
        k(   26) = (  -0.2500000  -0.2500000  -0.2500000), wk =   0.0156250

     Dense  grid:    17255 G-vectors     FFT dimensions: (  50,  50,  50)

     Smooth grid:     6111 G-vectors     FFT dimensions: (  36,  36,  36)

     Largest allocated arrays     est. size (Mb)     dimensions
        Kohn-Sham Wavefunctions         0.21 Mb     (    780,   18)
        Atomic wavefunctions            0.24 Mb     (    780,   20)
        NL pseudopotentials             0.62 Mb     (    780,   52)
        Each V/rho on FFT grid          3.81 Mb     ( 125000,   2)
        Each G-vector array             0.13 Mb     (  17255)
        G-vector shells                 0.00 Mb     (    342)
     Largest temporary arrays     est. size (Mb)     dimensions
        Auxiliary wavefunctions         0.86 Mb     (    780,   72)
        Each subspace H/S matrix        0.08 Mb     (  72,  72)
        Each <psi_i|beta_j> matrix      0.01 Mb     (     52,   18)
        Arrays for rho mixing          15.26 Mb     ( 125000,   8)

     Check: negative/imaginary core charge=   -0.000003    0.000000

     Initial potential from superposition of free atoms

     starting charge   27.99873, renormalised to   28.00000
     Number of +U iterations with fixed ns =  0
     Starting occupations:
 --- enter write_ns ---
 LDA+U parameters:
U( 1)     =  0.00000000
alpha( 1) =  0.00000000
U( 2)     =  4.30000000
alpha( 2) =  0.00000000
U( 3)     =  4.30000000
alpha( 3) =  0.00000000
atom    1   Tr[ns(na)] (up, down, total) =   2.00000  2.00000  4.00000
   spin  1
    eigenvalues: 
  0.667  0.667  0.667
    eigenvectors:
  1.000  0.000  0.000
  0.000  1.000  0.000
  0.000  0.000  1.000
    occupations:
  0.667  0.000  0.000
  0.000  0.667  0.000
  0.000  0.000  0.667
   spin  2
    eigenvalues: 
  0.667  0.667  0.667
    eigenvectors:
  1.000  0.000  0.000
  0.000  1.000  0.000
  0.000  0.000  1.000
    occupations:
  0.667  0.000  0.000
  0.000  0.667  0.000
  0.000  0.000  0.667
atomic mag. moment =     0.000000
atom    2   Tr[ns(na)] (up, down, total) =   2.00000  2.00000  4.00000
   spin  1
    eigenvalues: 
  0.667  0.667  0.667
    eigenvectors:
  1.000  0.000  0.000
  0.000  1.000  0.000
  0.000  0.000  1.000
    occupations:
  0.667  0.000  0.000
  0.000  0.667  0.000
  0.000  0.000  0.667
   spin  2
    eigenvalues: 
  0.667  0.667  0.667
    eigenvectors:
  1.000  0.000  0.000
  0.000  1.000  0.000
  0.000  0.000  1.000
    occupations:
  0.667  0.000  0.000
  0.000  0.667  0.000
  0.000  0.000  0.667
atomic mag. moment =     0.000000
atom    3   Tr[ns(na)] (up, down, total) =   5.00000  1.00000  6.00000
   spin  1
    eigenvalues: 
  1.000  1.000  1.000  1.000  1.000
    eigenvectors:
  1.000  0.000  0.000  0.000  0.000
  0.000  1.000  0.000  0.000  0.000
  0.000  0.000  1.000  0.000  0.000
  0.000  0.000  0.000  1.000  0.000
  0.000  0.000  0.000  0.000  1.000
    occupations:
  1.000  0.000  0.000  0.000  0.000
  0.000  1.000  0.000  0.000  0.000
  0.000  0.000  1.000  0.000  0.000
  0.000  0.000  0.000  1.000  0.000
  0.000  0.000  0.000  0.000  1.000
   spin  2
    eigenvalues: 
  0.200  0.200  0.200  0.200  0.200
    eigenvectors:
  1.000  0.000  0.000  0.000  0.000
  0.000  1.000  0.000  0.000  0.000
  0.000  0.000  1.000  0.000  0.000
  0.000  0.000  0.000  1.000  0.000
  0.000  0.000  0.000  0.000  1.000
    occupations:
  0.200  0.000  0.000  0.000  0.000
  0.000  0.200  0.000  0.000  0.000
  0.000  0.000  0.200  0.000  0.000
  0.000  0.000  0.000  0.200  0.000
  0.000  0.000  0.000  0.000  0.200
atomic mag. moment =     4.000000
atom    4   Tr[ns(na)] (up, down, total) =   1.00000  5.00000  6.00000
   spin  1
    eigenvalues: 
  0.200  0.200  0.200  0.200  0.200
    eigenvectors:
  1.000  0.000  0.000  0.000  0.000
  0.000  1.000  0.000  0.000  0.000
  0.000  0.000  1.000  0.000  0.000
  0.000  0.000  0.000  1.000  0.000
  0.000  0.000  0.000  0.000  1.000
    occupations:
  0.200  0.000  0.000  0.000  0.000
  0.000  0.200  0.000  0.000  0.000
  0.000  0.000  0.200  0.000  0.000
  0.000  0.000  0.000  0.200  0.000
  0.000  0.000  0.000  0.000  0.200
   spin  2
    eigenvalues: 
  1.000  1.000  1.000  1.000  1.000
    eigenvectors:
  1.000  0.000  0.000  0.000  0.000
  0.000  1.000  0.000  0.000  0.000
  0.000  0.000  1.000  0.000  0.000
  0.000  0.000  0.000  1.000  0.000
  0.000  0.000  0.000  0.000  1.000
    occupations:
  1.000  0.000  0.000  0.000  0.000
  0.000  1.000  0.000  0.000  0.000
  0.000  0.000  1.000  0.000  0.000
  0.000  0.000  0.000  1.000  0.000
  0.000  0.000  0.000  0.000  1.000
atomic mag. moment =    -4.000000
N of occupied +U levels =  20.0000000
 --- exit write_ns ---
 Atomic wfc used for LDA+U Projector are NOT orthogonalized
     Starting wfc are   20 randomized atomic wfcs

     total cpu time spent up to now is        2.9 secs

     per-process dynamical memory:    26.8 Mb

     Self-consistent Calculation

     iteration #  1     ecut=    30.00 Ry     beta=0.30
     Davidson diagonalization with overlap
     ethr =  1.00E-02,  avg # of iterations =  2.2
 --- enter write_ns ---
 LDA+U parameters:
U( 1)     =  0.00000000
alpha( 1) =  0.00000000
U( 2)     =  4.30000000
alpha( 2) =  0.00000000
U( 3)     =  4.30000000
alpha( 3) =  0.00000000
atom    1   Tr[ns(na)] (up, down, total) =   2.95940  2.95959  5.91899
   spin  1
    eigenvalues: 
  0.986  0.986  0.987
    eigenvectors:
  0.440  0.226  0.333
  0.553  0.113  0.333
  0.006  0.660  0.333
    occupations:
  0.986  0.000  0.000
  0.000  0.986  0.000
  0.000  0.000  0.986
   spin  2
    eigenvalues: 
  0.986  0.986  0.987
    eigenvectors:
  0.460  0.207  0.333
  0.537  0.130  0.333
  0.003  0.664  0.333
    occupations:
  0.987  0.000  0.000
  0.000  0.987  0.000
  0.000  0.000  0.987
atomic mag. moment =    -0.000196
atom    2   Tr[ns(na)] (up, down, total) =   2.95940  2.95959  5.91899
   spin  1
    eigenvalues: 
  0.986  0.986  0.987
    eigenvectors:
  0.448  0.219  0.333
  0.547  0.120  0.333
  0.005  0.662  0.333
    occupations:
  0.986  0.000  0.000
  0.000  0.986  0.000
  0.000  0.000  0.986
   spin  2
    eigenvalues: 
  0.986  0.986  0.987
    eigenvectors:
  0.500  0.167  0.333
  0.500  0.167  0.333
  0.000  0.667  0.333
    occupations:
  0.987  0.000  0.000
  0.000  0.987  0.000
  0.000  0.000  0.987
atomic mag. moment =    -0.000196
atom    3   Tr[ns(na)] (up, down, total) =   4.99859  1.03545  6.03404
   spin  1
    eigenvalues: 
  0.999  0.999  0.999  1.000  1.000
    eigenvectors:
  0.000  0.021  0.003  0.672  0.304
  0.333  0.375  0.276  0.000  0.016
  0.333  0.022  0.629  0.013  0.003
  0.000  0.003  0.021  0.304  0.672
  0.333  0.579  0.071  0.011  0.005
    occupations:
  1.000  0.000  0.000  0.000  0.000
  0.000  0.999  0.000  0.000  0.000
  0.000  0.000  0.999  0.000  0.000
  0.000  0.000  0.000  1.000  0.000
  0.000  0.000  0.000  0.000  0.999
   spin  2
    eigenvalues: 
  0.164  0.164  0.202  0.253  0.253
    eigenvectors:
  0.957  0.026  0.000  0.013  0.004
  0.004  0.007  0.333  0.002  0.654
  0.001  0.010  0.333  0.464  0.192
  0.026  0.957  0.000  0.004  0.013
  0.011  0.000  0.333  0.518  0.137
    occupations:
  0.166 -0.005 -0.005  0.000 -0.009
 -0.005  0.235 -0.016 -0.008  0.016
 -0.005 -0.016  0.235  0.008  0.016
  0.000 -0.008  0.008  0.166  0.000
 -0.009  0.016  0.016  0.000  0.235
atomic mag. moment =     3.963140
atom    4   Tr[ns(na)] (up, down, total) =   1.03368  4.99853  6.03222
   spin  1
    eigenvalues: 
  0.164  0.164  0.202  0.252  0.252
    eigenvectors:
  0.043  0.940  0.000  0.013  0.004
  0.006  0.005  0.333  0.000  0.655
  0.011  0.001  0.333  0.492  0.163
  0.940  0.043  0.000  0.004  0.013
  0.001  0.011  0.333  0.491  0.164
    occupations:
  0.165 -0.005 -0.005  0.000 -0.009
 -0.005  0.234 -0.016 -0.008  0.016
 -0.005 -0.016  0.234  0.008  0.016
  0.000 -0.008  0.008  0.165  0.000
 -0.009  0.016  0.016  0.000  0.234
   spin  2
    eigenvalues: 
  0.999  0.999  0.999  1.000  1.000
    eigenvectors:
  0.000  0.022  0.002  0.648  0.328
  0.333  0.345  0.305  0.000  0.016
  0.333  0.034  0.617  0.013  0.003
  0.000  0.002  0.022  0.328  0.648
  0.333  0.597  0.054  0.010  0.005
    occupations:
  1.000  0.000  0.000  0.000  0.000
  0.000  0.999  0.000  0.000  0.000
  0.000  0.000  0.999  0.000  0.000
  0.000  0.000  0.000  1.000  0.000
  0.000  0.000  0.000  0.000  0.999
atomic mag. moment =    -3.964849
N of occupied +U levels =  23.9042476
 --- exit write_ns ---

     total cpu time spent up to now is        4.9 secs

     total energy              =    -174.33708164 Ry
     Harris-Foulkes estimate   =    -175.49264524 Ry
     estimated scf accuracy    <       2.59946049 Ry

     total magnetization       =     0.00 Bohr mag/cell
     absolute magnetization    =     8.74 Bohr mag/cell

     iteration #  2     ecut=    30.00 Ry     beta=0.30
     Davidson diagonalization with overlap
     ethr =  9.28E-03,  avg # of iterations =  2.7

     total cpu time spent up to now is        7.0 secs

     total energy              =    -174.98195608 Ry
     Harris-Foulkes estimate   =    -174.99008264 Ry
     estimated scf accuracy    <       0.19160494 Ry

     total magnetization       =     0.02 Bohr mag/cell
     absolute magnetization    =     7.37 Bohr mag/cell

     iteration #  3     ecut=    30.00 Ry     beta=0.30
     Davidson diagonalization with overlap
     ethr =  6.84E-04,  avg # of iterations =  2.4

     total cpu time spent up to now is        9.0 secs

     total energy              =    -175.02343733 Ry
     Harris-Foulkes estimate   =    -175.00423974 Ry
     estimated scf accuracy    <       0.06858169 Ry

     total magnetization       =    -0.14 Bohr mag/cell
     absolute magnetization    =     7.50 Bohr mag/cell

     iteration #  4     ecut=    30.00 Ry     beta=0.30
     Davidson diagonalization with overlap
     ethr =  2.45E-04,  avg # of iterations =  1.8

     total cpu time spent up to now is       11.0 secs

     total energy              =    -175.03436357 Ry
     Harris-Foulkes estimate   =    -175.03915711 Ry
     estimated scf accuracy    <       0.39490958 Ry

     total magnetization       =     0.97 Bohr mag/cell
     absolute magnetization    =     7.48 Bohr mag/cell

     iteration #  5     ecut=    30.00 Ry     beta=0.30
     Davidson diagonalization with overlap
     ethr =  2.45E-04,  avg # of iterations =  1.0

     total cpu time spent up to now is       12.9 secs

     total energy              =    -175.06573013 Ry
     Harris-Foulkes estimate   =    -175.04615466 Ry
     estimated scf accuracy    <       0.02500613 Ry

     total magnetization       =    -0.06 Bohr mag/cell
     absolute magnetization    =     7.47 Bohr mag/cell

     iteration #  6     ecut=    30.00 Ry     beta=0.30
     Davidson diagonalization with overlap
     ethr =  8.93E-05,  avg # of iterations =  2.1

     total cpu time spent up to now is       14.8 secs

     total energy              =    -175.07174020 Ry
     Harris-Foulkes estimate   =    -175.07130216 Ry
     estimated scf accuracy    <       0.01419198 Ry

     total magnetization       =    -0.18 Bohr mag/cell
     absolute magnetization    =     7.42 Bohr mag/cell

     iteration #  7     ecut=    30.00 Ry     beta=0.30
     Davidson diagonalization with overlap
     ethr =  5.07E-05,  avg # of iterations =  1.2

     total cpu time spent up to now is       16.8 secs

     total energy              =    -175.07283548 Ry
     Harris-Foulkes estimate   =    -175.07241130 Ry
     estimated scf accuracy    <       0.00117522 Ry

     total magnetization       =    -0.01 Bohr mag/cell
     absolute magnetization    =     7.43 Bohr mag/cell

     iteration #  8     ecut=    30.00 Ry     beta=0.30
     Davidson diagonalization with overlap
     ethr =  4.20E-06,  avg # of iterations =  3.5

     total cpu time spent up to now is       19.0 secs

     total energy              =    -175.07420370 Ry
     Harris-Foulkes estimate   =    -175.07405638 Ry
     estimated scf accuracy    <       0.00259341 Ry

     total magnetization       =     0.07 Bohr mag/cell
     absolute magnetization    =     7.43 Bohr mag/cell

     iteration #  9     ecut=    30.00 Ry     beta=0.30
     Davidson diagonalization with overlap
     ethr =  4.20E-06,  avg # of iterations =  1.0

     total cpu time spent up to now is       20.9 secs

     total energy              =    -175.07419742 Ry
     Harris-Foulkes estimate   =    -175.07429061 Ry
     estimated scf accuracy    <       0.00037111 Ry

     total magnetization       =     0.02 Bohr mag/cell
     absolute magnetization    =     7.42 Bohr mag/cell

     iteration # 10     ecut=    30.00 Ry     beta=0.30
     Davidson diagonalization with overlap
     ethr =  1.33E-06,  avg # of iterations =  2.6

     total cpu time spent up to now is       23.0 secs

     total energy              =    -175.07455726 Ry
     Harris-Foulkes estimate   =    -175.07446610 Ry
     estimated scf accuracy    <       0.00011788 Ry

     total magnetization       =     0.01 Bohr mag/cell
     absolute magnetization    =     7.42 Bohr mag/cell

     iteration # 11     ecut=    30.00 Ry     beta=0.30
     Davidson diagonalization with overlap
     ethr =  4.21E-07,  avg # of iterations =  2.0

     total cpu time spent up to now is       24.9 secs

     total energy              =    -175.07459580 Ry
     Harris-Foulkes estimate   =    -175.07459023 Ry
     estimated scf accuracy    <       0.00003414 Ry

     total magnetization       =     0.00 Bohr mag/cell
     absolute magnetization    =     7.42 Bohr mag/cell

     iteration # 12     ecut=    30.00 Ry     beta=0.30
     Davidson diagonalization with overlap
     ethr =  1.22E-07,  avg # of iterations =  2.8

     total cpu time spent up to now is       27.0 secs

     total energy              =    -175.07461637 Ry
     Harris-Foulkes estimate   =    -175.07461415 Ry
     estimated scf accuracy    <       0.00001030 Ry

     total magnetization       =     0.00 Bohr mag/cell
     absolute magnetization    =     7.42 Bohr mag/cell

     iteration # 13     ecut=    30.00 Ry     beta=0.30
     Davidson diagonalization with overlap
     ethr =  3.68E-08,  avg # of iterations =  3.2

     total cpu time spent up to now is       29.2 secs

     total energy              =    -175.07463632 Ry
     Harris-Foulkes estimate   =    -175.07463036 Ry
     estimated scf accuracy    <       0.00000230 Ry

     total magnetization       =     0.00 Bohr mag/cell
     absolute magnetization    =     7.41 Bohr mag/cell

     iteration # 14     ecut=    30.00 Ry     beta=0.30
     Davidson diagonalization with overlap
     ethr =  8.21E-09,  avg # of iterations =  3.4

     total cpu time spent up to now is       31.4 secs

     total energy              =    -175.07463903 Ry
     Harris-Foulkes estimate   =    -175.07463812 Ry
     estimated scf accuracy    <       0.00000112 Ry

     total magnetization       =     0.00 Bohr mag/cell
     absolute magnetization    =     7.42 Bohr mag/cell

     iteration # 15     ecut=    30.00 Ry     beta=0.30
     Davidson diagonalization with overlap
     ethr =  4.01E-09,  avg # of iterations =  2.7

     total cpu time spent up to now is       33.4 secs

     End of self-consistent calculation
 --- enter write_ns ---
 LDA+U parameters:
U( 1)     =  0.00000000
alpha( 1) =  0.00000000
U( 2)     =  4.30000000
alpha( 2) =  0.00000000
U( 3)     =  4.30000000
alpha( 3) =  0.00000000
atom    1   Tr[ns(na)] (up, down, total) =   2.80479  2.80492  5.60971
   spin  1
    eigenvalues: 
  0.932  0.932  0.942
    eigenvectors:
  0.500  0.167  0.333
  0.500  0.167  0.333
  0.000  0.667  0.333
    occupations:
  0.935 -0.003 -0.003
 -0.003  0.935  0.003
 -0.003  0.003  0.935
   spin  2
    eigenvalues: 
  0.932  0.932  0.942
    eigenvectors:
  0.459  0.208  0.333
  0.538  0.129  0.333
  0.003  0.663  0.333
    occupations:
  0.935 -0.003 -0.003
 -0.003  0.935  0.003
 -0.003  0.003  0.935
atomic mag. moment =    -0.000121
atom    2   Tr[ns(na)] (up, down, total) =   2.80479  2.80492  5.60971
   spin  1
    eigenvalues: 
  0.932  0.932  0.942
    eigenvectors:
  0.433  0.234  0.333
  0.559  0.107  0.333
  0.008  0.659  0.333
    occupations:
  0.935 -0.003 -0.003
 -0.003  0.935  0.003
 -0.003  0.003  0.935
   spin  2
    eigenvalues: 
  0.932  0.932  0.942
    eigenvectors:
  0.405  0.261  0.333
  0.579  0.088  0.333
  0.015  0.651  0.333
    occupations:
  0.935 -0.003 -0.003
 -0.003  0.935  0.003
 -0.003  0.003  0.935
atomic mag. moment =    -0.000121
atom    3   Tr[ns(na)] (up, down, total) =   4.99045  1.73174  6.72219
   spin  1
    eigenvalues: 
  0.996  0.996  0.999  1.000  1.000
    eigenvectors:
  0.800  0.185  0.000  0.014  0.001
  0.000  0.010  0.333  0.061  0.596
  0.007  0.003  0.333  0.297  0.361
  0.185  0.800  0.000  0.001  0.014
  0.008  0.002  0.333  0.628  0.029
    occupations:
  0.996  0.000  0.000  0.000  0.000
  0.000  1.000  0.000  0.000  0.000
  0.000  0.000  1.000  0.000  0.000
  0.000  0.000  0.000  0.996  0.000
  0.000  0.000  0.000  0.000  1.000
   spin  2
    eigenvalues: 
  0.095  0.216  0.216  0.603  0.603
    eigenvectors:
  0.000  0.772  0.107  0.096  0.025
  0.333  0.048  0.033  0.001  0.585
  0.333  0.002  0.078  0.413  0.173
  0.000  0.107  0.772  0.025  0.096
  0.333  0.071  0.010  0.464  0.122
    occupations:
  0.263 -0.051 -0.051  0.000 -0.103
 -0.051  0.402 -0.154 -0.089  0.154
 -0.051 -0.154  0.402  0.089  0.154
  0.000 -0.089  0.089  0.263  0.000
 -0.103  0.154  0.154  0.000  0.402
atomic mag. moment =     3.258714
atom    4   Tr[ns(na)] (up, down, total) =   1.73173  4.99046  6.72219
   spin  1
    eigenvalues: 
  0.095  0.216  0.216  0.603  0.603
    eigenvectors:
  0.000  0.848  0.030  0.085  0.037
  0.333  0.034  0.047  0.002  0.584
  0.333  0.009  0.072  0.467  0.119
  0.000  0.030  0.848  0.037  0.085
  0.333  0.078  0.003  0.410  0.176
    occupations:
  0.263 -0.052 -0.052  0.000 -0.103
 -0.052  0.402 -0.154 -0.089  0.154
 -0.052 -0.154  0.402  0.089  0.154
  0.000 -0.089  0.089  0.263  0.000
 -0.103  0.154  0.154  0.000  0.402
   spin  2
    eigenvalues: 
  0.996  0.996  0.999  1.000  1.000
    eigenvectors:
  0.333  0.653  0.000  0.013  0.002
  0.002  0.008  0.333  0.021  0.636
  0.010  0.000  0.333  0.382  0.275
  0.653  0.333  0.000  0.002  0.013
  0.003  0.006  0.333  0.583  0.074
    occupations:
  0.996  0.000  0.000  0.000  0.000
  0.000  1.000  0.000  0.000  0.000
  0.000  0.000  1.000  0.000  0.000
  0.000  0.000  0.000  0.996  0.000
  0.000  0.000  0.000  0.000  1.000
atomic mag. moment =    -3.258736
N of occupied +U levels =  24.6637956
 --- exit write_ns ---

 ------ SPIN UP ------------


          k = 0.0000 0.0000 0.0000 (   731 PWs)   bands (ev):

    -8.6736  -7.5155   2.3620   4.1200   4.1200   6.0701   6.0701   6.6808
     8.1507   8.1507   8.1550   8.8861   8.8861  10.8749  10.8749  11.9568
    13.6225  14.2908

          k = 0.3750-0.1250-0.1250 (   758 PWs)   bands (ev):

    -8.2464  -7.5867   3.1853   4.1134   4.3873   4.6622   5.8047   6.4059
     6.6494   7.5029   7.7458   8.9494   9.1200  10.7804  11.3538  13.5809
    13.8796  14.2055

          k =-0.7500 0.2500 0.2500 (   764 PWs)   bands (ev):

    -8.0366  -7.3247   3.0353   3.7567   4.3505   4.4059   5.6902   6.2046
     6.5519   6.6949   7.5883   8.8859   9.3901  10.7141  11.7550  13.9283
    14.1641  14.2303

          k = 0.2500 0.2500-0.2500 (   756 PWs)   bands (ev):

    -8.1531  -7.6989   3.4542   3.8764   4.4226   4.5906   5.7704   6.3193
     6.7189   7.3445   7.6103   9.2886   9.3125  10.7439  11.3983  13.6694
    14.1066  14.1424

          k =-0.8750 0.6250 0.1250 (   767 PWs)   bands (ev):

    -7.7992  -7.5683   3.3567   3.8990   4.3592   4.5662   4.7162   5.8484
     6.8157   7.1024   7.6856   8.8429   9.0760  11.2326  11.5188  13.8406
    14.0193  14.3291

          k =-0.5000 0.5000 0.0000 (   759 PWs)   bands (ev):

    -7.7125  -7.6477   3.3710   4.0041   4.3701   4.6167   4.7912   5.5889
     6.7235   7.1184   7.9450   8.4904   9.1223  11.2892  11.4660  13.8306
    13.9449  14.5036

          k =-0.5000-0.5000 0.5000 (   780 PWs)   bands (ev):

    -7.8409  -7.5151   2.3210   4.1898   4.2968   4.5989   5.4286   6.5414
     6.9933   6.9976   7.1050   8.9623   9.2550  10.8952  11.8502  13.9340
    14.3841  14.5425

          k = 0.1250 0.1250 0.1250 (   748 PWs)   bands (ev):

    -8.5256  -7.7139   2.7930   4.1683   4.1683   6.0909   6.0909   6.3790
     7.5137   7.6988   7.6988   9.3535   9.3535  10.8356  10.8356  12.9236
    13.4804  14.1935

          k =-1.0000 0.5000 0.5000 (   754 PWs)   bands (ev):

    -8.2022  -7.6737   3.2049   4.2833   4.3947   4.5421   5.8353   6.2238
     6.9972   7.8343   7.8431   8.1989   8.8700  10.9036  11.3819  13.4523
    13.7239  14.3269

          k =-0.6250 0.3750 0.3750 (   764 PWs)   bands (ev):

    -7.9538  -7.4049   2.6173   3.9142   4.3226   4.6761   5.5393   6.4211
     6.5439   6.8383   7.4925   9.0640   9.1813  10.7988  11.8069  13.9317
    14.2743  14.3377

          k =-0.6250-0.6250 0.8750 (   757 PWs)   bands (ev):

    -8.0624  -7.8324   3.4326   4.0404   4.4299   4.5346   5.8013   6.2147
     6.9636   7.4017   7.6740   8.8290   9.0688  10.8618  11.4259  13.6077
    13.7770  14.2320

          k =-0.2500-0.7500 0.7500 (   764 PWs)   bands (ev):

    -7.8446  -7.5301   3.4075   3.6840   4.3879   4.4349   4.8069   6.0592
     6.8600   7.0875   7.5652   8.8864   9.2160  11.1981  11.5544  13.8334
    14.1357  14.1616

          k =-0.2500-0.2500-0.2500 (   748 PWs)   bands (ev):

    -8.1835  -8.1048   3.3916   4.2185   4.2185   5.7346   6.1121   6.1121
     7.1953   7.4116   7.4116   9.6607   9.6607  10.7955  10.7955  13.2233
    14.0949  14.0949

 ------ SPIN DOWN ----------


          k = 0.0000 0.0000 0.0000 (   731 PWs)   bands (ev):

    -8.6739  -7.5158   2.3613   4.1184   4.1184   6.0689   6.0689   6.6810
     8.1503   8.1503   8.1549   8.8856   8.8856  10.8753  10.8753  11.9566
    13.6222  14.2921

          k = 0.3750-0.1250-0.1250 (   758 PWs)   bands (ev):

    -8.2467  -7.5868   3.1845   4.1120   4.3864   4.6620   5.8031   6.4055
     6.6487   7.5025   7.7454   8.9487   9.1196  10.7810  11.3538  13.5813
    13.8798  14.2070

          k =-0.7500 0.2500 0.2500 (   764 PWs)   bands (ev):

    -8.0369  -7.3248   3.0345   3.7558   4.3502   4.4057   5.6901   6.2042
     6.5488   6.6955   7.5870   8.8853   9.3899  10.7145  11.7549  13.9280
    14.1657  14.2319

          k = 0.2500 0.2500-0.2500 (   756 PWs)   bands (ev):

    -8.1534  -7.6990   3.4537   3.8746   4.4218   4.5903   5.7690   6.3191
     6.7188   7.3435   7.6097   9.2883   9.3120  10.7442  11.3983  13.6692
    14.1082  14.1440

          k =-0.8750 0.6250 0.1250 (   767 PWs)   bands (ev):

    -7.7994  -7.5684   3.3562   3.8980   4.3590   4.5660   4.7151   5.8480
     6.8150   7.1008   7.6844   8.8429   9.0758  11.2323  11.5188  13.8407
    14.0206  14.3308

          k =-0.5000 0.5000 0.0000 (   759 PWs)   bands (ev):

    -7.7128  -7.6478   3.3710   4.0025   4.3697   4.6165   4.7903   5.5884
     6.7230   7.1164   7.9438   8.4902   9.1225  11.2888  11.4663  13.8312
    13.9456  14.5053

          k =-0.5000-0.5000 0.5000 (   780 PWs)   bands (ev):

    -7.8409  -7.5154   2.3201   4.1891   4.2968   4.5986   5.4283   6.5383
     6.9929   6.9974   7.1032   8.9632   9.2550  10.8950  11.8496  13.9337
    14.3858  14.5442

          k = 0.1250 0.1250 0.1250 (   748 PWs)   bands (ev):

    -8.5258  -7.7142   2.7922   4.1667   4.1667   6.0897   6.0897   6.3791
     7.5137   7.6985   7.6985   9.3529   9.3529  10.8361  10.8361  12.9233
    13.4802  14.1949

          k =-1.0000 0.5000 0.5000 (   754 PWs)   bands (ev):

    -8.2025  -7.6739   3.2037   4.2826   4.3940   4.5419   5.8335   6.2229
     6.9969   7.8338   7.8423   8.1984   8.8704  10.9040  11.3817  13.4534
    13.7237  14.3285

          k =-0.6250 0.3750 0.3750 (   764 PWs)   bands (ev):

    -7.9540  -7.4051   2.6164   3.9135   4.3225   4.6757   5.5391   6.4205
     6.5409   6.8384   7.4912   9.0636   9.1816  10.7989  11.8066  13.9314
    14.2760  14.3393

          k =-0.6250-0.6250 0.8750 (   757 PWs)   bands (ev):

    -8.0626  -7.8325   3.4313   4.0396   4.4292   4.5344   5.7996   6.2141
     6.9635   7.4007   7.6731   8.8287   9.0692  10.8620  11.4256  13.6080
    13.7778  14.2336

          k =-0.2500-0.7500 0.7500 (   764 PWs)   bands (ev):

    -7.8449  -7.5301   3.4062   3.6837   4.3878   4.4347   4.8058   6.0589
     6.8583   7.0867   7.5641   8.8861   9.2158  11.1979  11.5543  13.8333
    14.1375  14.1632

          k =-0.2500-0.2500-0.2500 (   748 PWs)   bands (ev):

    -8.1839  -8.1050   3.3907   4.2168   4.2168   5.7347   6.1110   6.1110
     7.1955   7.4113   7.4113   9.6599   9.6599  10.7960  10.7960  13.2230
    14.0962  14.0962

     the Fermi energy is    11.2772 ev

!    total energy              =    -175.07464368 Ry
     Harris-Foulkes estimate   =    -175.07464052 Ry
     estimated scf accuracy    <       0.00000006 Ry

     The total energy is the sum of the following terms:

     one-electron contribution =       1.20406338 Ry
     hartree contribution      =      28.12601026 Ry
     xc contribution           =     -67.18260527 Ry
     ewald contribution        =    -137.50929535 Ry
     Hubbard energy            =       0.28853332 Ry
     smearing contrib. (-TS)   =      -0.00135001 Ry

     total magnetization       =     0.00 Bohr mag/cell
     absolute magnetization    =     7.41 Bohr mag/cell

     convergence has been achieved in  15 iterations

     Writing output data file feo.save
 
     init_run     :      2.64s CPU      2.75s WALL (       1 calls)
     electrons    :     28.20s CPU     30.54s WALL (       1 calls)

     Called by init_run:
     wfcinit      :      0.39s CPU      0.43s WALL (       1 calls)
     potinit      :      0.39s CPU      0.44s WALL (       1 calls)

     Called by electrons:
     c_bands      :     12.92s CPU     13.71s WALL (      15 calls)
     sum_band     :      6.57s CPU      7.05s WALL (      15 calls)
     v_of_rho     :      4.57s CPU      5.24s WALL (      16 calls)
     newd         :      2.66s CPU      2.80s WALL (      16 calls)
     mix_rho      :      0.50s CPU      0.54s WALL (      15 calls)

     Called by c_bands:
     init_us_2    :      0.16s CPU      0.18s WALL (     224 calls)
     cegterg      :     12.30s CPU     13.01s WALL (     105 calls)

     Called by *egterg:
     h_psi        :     11.47s CPU     12.01s WALL (     352 calls)
     s_psi        :      0.25s CPU      0.22s WALL (     359 calls)
     g_psi        :      0.06s CPU      0.04s WALL (     240 calls)
     cdiaghg      :      0.31s CPU      0.33s WALL (     345 calls)

     Called by h_psi:
     add_vuspsi   :      0.23s CPU      0.23s WALL (     352 calls)

     General routines
     calbec       :      0.50s CPU      0.50s WALL (     921 calls)
     fft          :      2.66s CPU      3.12s WALL (     486 calls)
     ffts         :      0.09s CPU      0.11s WALL (      62 calls)
     fftw         :     10.82s CPU     11.54s WALL (   10792 calls)
     interpolate  :      0.45s CPU      0.67s WALL (      62 calls)
     davcio       :      0.01s CPU      0.13s WALL (     658 calls)
 
     Parallel routines
     fft_scatter  :      0.88s CPU      1.25s WALL (   11340 calls)
     EXX routines
 
     PWSCF        :    31.13s CPU        33.66s WALL

 
   This run was terminated on:  16:25:22  15Jun2012            

=------------------------------------------------------------------------------=
   JOB DONE.
=------------------------------------------------------------------------------=
