
     Program PWSCF v.5.0        starts on 18Jun2012 at 10: 4:51 

     This program is part of the open-source Quantum ESPRESSO suite
     for quantum simulation of materials; please cite
         "P. Giannozzi et al., J. Phys.:Condens. Matter 21 395502 (2009);
          URL http://www.quantum-espresso.org", 
     in publications or presentations arising from this work. More details at
     http://www.quantum-espresso.org/quote.php

     Parallel version (MPI), running on     4 processors
     K-points division:     npool     =    4

     Current dimensions of program PWSCF are:
     Max number of different atomic species (ntypx) = 10
     Max number of k-points (npk) =  40000
     Max angular momentum in pseudopotentials (lmaxx) =  3
     Waiting for input...
     Reading input from standard input
               file O.pbe-rrkjus.UPF: wavefunction(s)  2S renormalized

     Atomic positions and unit cell read from directory:
     temp/cu2o.save/
 

     Subspace diagonalization in iterative solution of the eigenvalue problem:
     a serial algorithm will be used

 
     G-vector sticks info
     --------------------
     sticks:   dense  smooth     PW     G-vecs:    dense   smooth      PW
     Sum        1609     641    185                48501    12197    1863
 


     bravais-lattice index     =            1
     lattice parameter (alat)  =       8.2100  a.u.
     unit-cell volume          =     553.3877 (a.u.)^3
     number of atoms/cell      =            6
     number of atomic types    =            2
     number of electrons       =        56.00
     number of Kohn-Sham states=           32
     kinetic-energy cutoff     =      30.0000  Ry
     charge density cutoff     =     300.0000  Ry
     Exchange-correlation      =  SLA  PW   PBE  PBE ( 1 4 3 4 0)
     EXX-fraction              =        0.00

     celldm(1)=   8.210000  celldm(2)=   0.000000  celldm(3)=   0.000000
     celldm(4)=   0.000000  celldm(5)=   0.000000  celldm(6)=   0.000000

     crystal axes: (cart. coord. in units of alat)
               a(1) = (   1.000000   0.000000   0.000000 )  
               a(2) = (   0.000000   1.000000   0.000000 )  
               a(3) = (   0.000000   0.000000   1.000000 )  

     reciprocal axes: (cart. coord. in units 2 pi/alat)
               b(1) = (  1.000000  0.000000  0.000000 )  
               b(2) = (  0.000000  1.000000  0.000000 )  
               b(3) = (  0.000000  0.000000  1.000000 )  


     PseudoPot. # 1 for Cu read from file:
     ../pseudo/Cu.pbe-d-rrkjus.UPF
     MD5 check sum: 855c9c66b119533e70b4be5d3ca221fe
     Pseudo is Ultrasoft, Zval = 11.0
     Generated by new atomic code, or converted to UPF format
     Using radial grid of  899 points,  3 beta functions with: 
                l(1) =   2
                l(2) =   2
                l(3) =   1
     Q(r) pseudized with 0 coefficients 


     PseudoPot. # 2 for O  read from file:
     ../pseudo/O.pbe-rrkjus.UPF
     MD5 check sum: 390ba29e75625707450f3bd3f0eb6be9
     Pseudo is Ultrasoft, Zval =  6.0
     Generated by new atomic code, or converted to UPF format
     Using radial grid of 1269 points,  4 beta functions with: 
                l(1) =   0
                l(2) =   0
                l(3) =   1
                l(4) =   1
     Q(r) pseudized with 0 coefficients 


     atomic species   valence    mass     pseudopotential
        Cu            11.00     1.00000     Cu( 1.00)
        O              6.00     1.00000     O ( 1.00)
 -----
     simplified LDA+U calculation, Hubbard_lmax = 2
     atomic species  L   Hubbard U  Hubbard alpha
        Cu           2   10.420000    0.000000
        O            1    0.000000    0.000000
 -----

     24 Sym. Ops. (no inversion) found
          (note: 24 additional sym.ops. were found but ignored
           their fractional transations are incommensurate with FFT grid)


   Cartesian axes

     site n.     atom                  positions (alat units)
         1           Cu  tau(   1) = (   0.2500000   0.2500000   0.2500000  )
         2           Cu  tau(   2) = (   0.7500000   0.2500000   0.7500000  )
         3           Cu  tau(   3) = (   0.7500000   0.7500000   0.2500000  )
         4           Cu  tau(   4) = (   0.2500000   0.7500000   0.7500000  )
         5           O   tau(   5) = (   0.0000000   0.0000000   0.0000000  )
         6           O   tau(   6) = (   0.5000000   0.5000000   0.5000000  )

     number of k points=    10
                       cart. coord. in units 2pi/alat
        k(    1) = (   0.0000000   0.0000000   0.0000000), wk =   0.0312500
        k(    2) = (   0.0000000   0.0000000   0.2500000), wk =   0.1875000
        k(    3) = (   0.0000000   0.0000000  -0.5000000), wk =   0.0937500
        k(    4) = (   0.0000000   0.2500000   0.2500000), wk =   0.3750000
        k(    5) = (   0.0000000   0.2500000  -0.5000000), wk =   0.3750000
        k(    6) = (   0.0000000  -0.5000000  -0.5000000), wk =   0.0937500
        k(    7) = (   0.2500000   0.2500000   0.2500000), wk =   0.2500000
        k(    8) = (   0.2500000   0.2500000  -0.5000000), wk =   0.3750000
        k(    9) = (   0.2500000  -0.5000000  -0.5000000), wk =   0.1875000
        k(   10) = (  -0.5000000  -0.5000000  -0.5000000), wk =   0.0312500

     Dense  grid:    48501 G-vectors     FFT dimensions: (  45,  45,  45)

     Smooth grid:    12197 G-vectors     FFT dimensions: (  30,  30,  30)

     Largest allocated arrays     est. size (Mb)     dimensions
        Kohn-Sham Wavefunctions         0.77 Mb     (   1568,   32)
        Atomic wavefunctions            0.77 Mb     (   1568,   32)
        NL pseudopotentials             1.63 Mb     (   1568,   68)
        Each V/rho on FFT grid          1.39 Mb     (  91125)
        Each G-vector array             0.37 Mb     (  48501)
        G-vector shells                 0.00 Mb     (    428)
     Largest temporary arrays     est. size (Mb)     dimensions
        Auxiliary wavefunctions         3.06 Mb     (   1568,  128)
        Each subspace H/S matrix        0.25 Mb     ( 128, 128)
        Each <psi_i|beta_j> matrix      0.03 Mb     (     68,   32)

     The potential is recalculated from file :
     temp/cu2o.save/charge-density.dat

     Number of +U iterations with fixed ns =  0
     Starting occupations:
 --- enter write_ns ---
 LDA+U parameters:
U( 1)     = 10.42000000
alpha( 1) =  0.00000000
U( 2)     =  0.00000000
alpha( 2) =  0.00000000
atom    1   Tr[ns(na)] =   9.90474
    eigenvalues: 
  0.958  0.998  0.998  0.999  0.999
    eigenvectors:
  0.000  0.032  0.002  0.568  0.398
  0.333  0.298  0.346  0.001  0.022
  0.333  0.056  0.588  0.020  0.003
  0.000  0.002  0.032  0.398  0.568
  0.333  0.612  0.032  0.013  0.009
    occupations:
  0.999  0.000  0.000  0.000  0.000
  0.000  0.985 -0.013  0.000  0.013
  0.000 -0.013  0.985  0.000  0.013
  0.000  0.000  0.000  0.999  0.000
  0.000  0.013  0.013  0.000  0.985
atom    2   Tr[ns(na)] =   9.90474
    eigenvalues: 
  0.958  0.998  0.998  0.999  0.999
    eigenvectors:
  0.000  0.019  0.015  0.003  0.963
  0.333  0.576  0.068  0.018  0.005
  0.333  0.023  0.621  0.016  0.007
  0.000  0.015  0.019  0.963  0.003
  0.333  0.367  0.277  0.000  0.022
    occupations:
  0.999  0.000  0.000  0.000  0.000
  0.000  0.985  0.013  0.000 -0.013
  0.000  0.013  0.985  0.000  0.013
  0.000  0.000  0.000  0.999  0.000
  0.000 -0.013  0.013  0.000  0.985
atom    3   Tr[ns(na)] =   9.90474
    eigenvalues: 
  0.958  0.998  0.998  0.999  0.999
    eigenvectors:
  0.000  0.034  0.000  0.738  0.228
  0.333  0.113  0.531  0.000  0.023
  0.333  0.214  0.430  0.017  0.006
  0.000  0.000  0.034  0.228  0.738
  0.333  0.639  0.005  0.017  0.005
    occupations:
  0.999  0.000  0.000  0.000  0.000
  0.000  0.985 -0.013  0.000 -0.013
  0.000 -0.013  0.985  0.000 -0.013
  0.000  0.000  0.000  0.999  0.000
  0.000 -0.013 -0.013  0.000  0.985
atom    4   Tr[ns(na)] =   9.90474
    eigenvalues: 
  0.958  0.998  0.998  0.999  0.999
    eigenvectors:
  0.000  0.015  0.019  0.668  0.298
  0.333  0.063  0.581  0.018  0.004
  0.333  0.617  0.027  0.000  0.022
  0.000  0.019  0.015  0.298  0.668
  0.333  0.286  0.359  0.016  0.007
    occupations:
  0.999  0.000  0.000  0.000  0.000
  0.000  0.985  0.013  0.000  0.013
  0.000  0.013  0.985  0.000 -0.013
  0.000  0.000  0.000  0.999  0.000
  0.000  0.013 -0.013  0.000  0.985
atom    5   Tr[ns(na)] =   5.72461
    eigenvalues: 
  0.954  0.954  0.954
    eigenvectors:
  0.012  0.520  0.468
  0.120  0.453  0.427
  0.868  0.027  0.105
    occupations:
  0.954  0.000  0.000
  0.000  0.954  0.000
  0.000  0.000  0.954
atom    6   Tr[ns(na)] =   5.72466
    eigenvalues: 
  0.954  0.954  0.954
    eigenvectors:
  0.203  0.219  0.578
  0.679  0.012  0.309
  0.117  0.769  0.113
    occupations:
  0.954  0.000  0.000
  0.000  0.954  0.000
  0.000  0.000  0.954
N of occupied +U levels =  51.0682124
 --- exit write_ns ---
 Atomic wfc used for LDA+U Projector are NOT orthogonalized
     Starting wfc are   32 randomized atomic wfcs

     total cpu time spent up to now is        2.0 secs

     per-process dynamical memory:    25.9 Mb

     Band Structure Calculation
     Davidson diagonalization with overlap

     ethr =  1.79E-09,  avg # of iterations = 14.9

     total cpu time spent up to now is        4.8 secs

     End of band structure calculation

          k = 0.0000 0.0000 0.0000     band energies (ev):

   -12.0192 -10.4217  -1.4049  -1.4049  -1.4049   0.5149   0.5149   1.1150
     1.1150   1.1150   1.6020   2.3430   2.3430   2.7357   2.7357   2.7357
     2.8160   2.8160   2.8160   3.0187   3.0187   3.0187   4.1334   4.1334
     4.1334   7.0700   7.0700   7.0700   7.8613   9.9815   9.9815  16.3261

          k = 0.0000 0.0000 0.2500     band energies (ev):

   -11.8343 -10.7324  -0.9815  -0.9815  -0.8838   0.5571   0.7462   1.0012
     1.0012   1.1734   1.7404   2.1274   2.1695   2.1695   2.4122   2.4430
     2.5875   2.6729   2.6729   2.7613   2.9408   2.9408   3.8822   4.9247
     4.9247   5.8259   6.8823   6.8823   8.7060  10.8203  10.8622  15.5183

          k = 0.0000 0.0000-0.5000     band energies (ev):

   -11.3444 -11.3427  -0.1041  -0.1041   0.1972   0.1973   0.2203   0.2203
     1.2720   1.2720   1.4495   1.4495   2.1445   2.1445   2.3531   2.3531
     2.3938   2.3938   2.5825   2.5825   2.9118   2.9118   4.3398   4.3398
     5.6048   5.6048   6.5643   6.5643  10.2468  10.2471  12.8373  12.8374

          k = 0.0000 0.2500 0.2500     band energies (ev):

   -11.7170 -10.9522  -0.7815  -0.6390  -0.3414   0.6430   0.6484   0.8727
     1.0156   1.4113   1.6972   1.8039   1.9597   2.1997   2.2115   2.3225
     2.3418   2.5222   2.6512   2.6772   2.7609   2.8487   4.2735   5.0130
     5.2490   5.5814   6.4419   6.7255   9.2960  11.0196  11.4836  13.9811

          k = 0.0000 0.2500-0.5000     band energies (ev):

   -11.3859 -11.3843  -0.0162  -0.0161   0.1282   0.1282   0.5092   0.5092
     1.4193   1.4193   1.5357   1.5357   1.8853   1.8853   2.0231   2.0231
     2.4332   2.4332   2.6080   2.6080   2.8051   2.8051   4.6281   4.6281
     5.5443   5.5443   6.4095   6.4095  10.4104  10.4107  12.4011  12.4011

          k = 0.0000-0.5000-0.5000     band energies (ev):

   -11.4280 -11.4263   0.0219   0.0219   0.2761   0.2761   0.6288   0.6288
     1.4927   1.4927   1.5579   1.5579   1.8895   1.8895   2.0350   2.0350
     2.0822   2.0822   2.4211   2.4211   2.9263   2.9264   4.7313   4.7313
     5.5759   5.5759   6.3163   6.3163  10.3582  10.3584  12.1315  12.1315

          k = 0.2500 0.2500 0.2500     band energies (ev):

   -11.8036 -10.9441  -0.5772  -0.5772  -0.1689   0.7113   0.7113   0.8416
     1.1802   1.1802   1.4929   1.9480   1.9480   2.1153   2.1153   2.2961
     2.3168   2.3168   2.4656   2.8203   2.8203   2.8736   4.7617   4.8549
     4.8549   6.0567   6.0567   6.4502   9.8123  11.5742  11.5742  13.1788

          k = 0.2500 0.2500-0.5000     band energies (ev):

   -11.8899 -10.9365  -0.3440  -0.3355  -0.2458   0.6481   0.7980   0.8642
     1.1478   1.2768   1.5790   1.7685   1.8150   1.9145   2.0459   2.1024
     2.3341   2.4493   2.6548   2.7499   2.7925   3.0198   4.3038   4.8669
     5.2408   5.8815   6.0517   6.3912  10.5599  11.0971  11.7054  13.0035

          k = 0.2500-0.5000-0.5000     band energies (ev):

   -12.1186 -10.7646  -0.5264  -0.5264  -0.4587   0.8456   0.8456   0.8990
     1.0905   1.6692   1.6692   1.7290   1.8814   1.8945   1.8945   2.3130
     2.4979   2.4979   2.6624   2.7215   2.7564   3.2742   4.1842   4.1842
     5.4590   5.9983   5.9983   6.4068  10.3913  11.7223  11.7223  11.9013

          k =-0.5000-0.5000-0.5000     band energies (ev):

   -12.4207 -10.4899  -0.8445  -0.8445  -0.8445   0.6956   0.6956   0.6956
     1.5600   1.5600   1.7272   1.7272   1.7272   2.6970   2.6970   2.6970
     2.8401   2.8401   2.8401   2.9245   2.9245   3.2985   3.2985   3.2985
     4.5971   6.3870   6.3870   6.3870  11.0956  11.0956  11.0956  13.2995

     highest occupied, lowest unoccupied level (ev):     7.0700    7.8613

     Writing output data file cu2o.save
 
     init_run     :      1.62s CPU      1.77s WALL (       1 calls)
     electrons    :      2.78s CPU      2.84s WALL (       1 calls)

     Called by init_run:
     wfcinit      :      0.03s CPU      0.03s WALL (       1 calls)
     potinit      :      0.12s CPU      0.17s WALL (       1 calls)

     Called by electrons:
     c_bands      :      2.78s CPU      2.84s WALL (       1 calls)
     v_of_rho     :      0.10s CPU      0.14s WALL (       1 calls)
     newd         :      0.47s CPU      0.55s WALL (       1 calls)

     Called by c_bands:
     init_us_2    :      0.01s CPU      0.01s WALL (       6 calls)
     cegterg      :      2.53s CPU      2.57s WALL (       4 calls)

     Called by *egterg:
     h_psi        :      1.80s CPU      1.82s WALL (      64 calls)
     s_psi        :      0.13s CPU      0.11s WALL (      67 calls)
     g_psi        :      0.02s CPU      0.02s WALL (      57 calls)
     cdiaghg      :      0.26s CPU      0.26s WALL (      60 calls)

     Called by h_psi:
     add_vuspsi   :      0.10s CPU      0.11s WALL (      64 calls)

     General routines
     calbec       :      0.16s CPU      0.17s WALL (     131 calls)
     fft          :      0.04s CPU      0.06s WALL (      12 calls)
     ffts         :      0.00s CPU      0.00s WALL (       1 calls)
     fftw         :      1.18s CPU      1.18s WALL (    1838 calls)
     interpolate  :      0.01s CPU      0.01s WALL (       1 calls)
     davcio       :      0.00s CPU      0.01s WALL (      12 calls)
 
     Parallel routines
     fft_scatter  :      0.07s CPU      0.08s WALL (    1851 calls)
     EXX routines
 
     PWSCF        :     4.67s CPU         4.91s WALL

 
   This run was terminated on:  10: 4:56  18Jun2012            

=------------------------------------------------------------------------------=
   JOB DONE.
=------------------------------------------------------------------------------=
