
     Program PROJWFC v.5.0      starts on 18Jun2012 at 10: 4:56 

     This program is part of the open-source Quantum ESPRESSO suite
     for quantum simulation of materials; please cite
         "P. Giannozzi et al., J. Phys.:Condens. Matter 21 395502 (2009);
          URL http://www.quantum-espresso.org", 
     in publications or presentations arising from this work. More details at
     http://www.quantum-espresso.org/quote.php

     Parallel version (MPI), running on     4 processors
     K-points division:     npool     =    4

   Info: using nr1, nr2, nr3 values from input

   Info: using nr1s, nr2s, nr3s values from input

     IMPORTANT: XC functional enforced from input :
     Exchange-correlation      =  SLA  PW   PBE  PBE ( 1 4 3 4 0)
     EXX-fraction              =        0.00
     Any further DFT definition will be discarded
     Please, verify this is what you really want

               file O.pbe-rrkjus.UPF: wavefunction(s)  2S renormalized
 
     G-vector sticks info
     --------------------
     sticks:   dense  smooth     PW     G-vecs:    dense   smooth      PW
     Sum        1609     641    185                48501    12197    1863
 

     Gaussian broadening (default values): ngauss,degauss=   0    0.007350


     Calling projwave .... 

     Atomic states used for projection
     (read from pseudopotential files):

     state #   1: atom   1 (Cu ), wfc  1 (l=2 m= 1)
     state #   2: atom   1 (Cu ), wfc  1 (l=2 m= 2)
     state #   3: atom   1 (Cu ), wfc  1 (l=2 m= 3)
     state #   4: atom   1 (Cu ), wfc  1 (l=2 m= 4)
     state #   5: atom   1 (Cu ), wfc  1 (l=2 m= 5)
     state #   6: atom   1 (Cu ), wfc  2 (l=0 m= 1)
     state #   7: atom   2 (Cu ), wfc  1 (l=2 m= 1)
     state #   8: atom   2 (Cu ), wfc  1 (l=2 m= 2)
     state #   9: atom   2 (Cu ), wfc  1 (l=2 m= 3)
     state #  10: atom   2 (Cu ), wfc  1 (l=2 m= 4)
     state #  11: atom   2 (Cu ), wfc  1 (l=2 m= 5)
     state #  12: atom   2 (Cu ), wfc  2 (l=0 m= 1)
     state #  13: atom   3 (Cu ), wfc  1 (l=2 m= 1)
     state #  14: atom   3 (Cu ), wfc  1 (l=2 m= 2)
     state #  15: atom   3 (Cu ), wfc  1 (l=2 m= 3)
     state #  16: atom   3 (Cu ), wfc  1 (l=2 m= 4)
     state #  17: atom   3 (Cu ), wfc  1 (l=2 m= 5)
     state #  18: atom   3 (Cu ), wfc  2 (l=0 m= 1)
     state #  19: atom   4 (Cu ), wfc  1 (l=2 m= 1)
     state #  20: atom   4 (Cu ), wfc  1 (l=2 m= 2)
     state #  21: atom   4 (Cu ), wfc  1 (l=2 m= 3)
     state #  22: atom   4 (Cu ), wfc  1 (l=2 m= 4)
     state #  23: atom   4 (Cu ), wfc  1 (l=2 m= 5)
     state #  24: atom   4 (Cu ), wfc  2 (l=0 m= 1)
     state #  25: atom   5 (O  ), wfc  1 (l=0 m= 1)
     state #  26: atom   5 (O  ), wfc  2 (l=1 m= 1)
     state #  27: atom   5 (O  ), wfc  2 (l=1 m= 2)
     state #  28: atom   5 (O  ), wfc  2 (l=1 m= 3)
     state #  29: atom   6 (O  ), wfc  1 (l=0 m= 1)
     state #  30: atom   6 (O  ), wfc  2 (l=1 m= 1)
     state #  31: atom   6 (O  ), wfc  2 (l=1 m= 2)
     state #  32: atom   6 (O  ), wfc  2 (l=1 m= 3)

 k =   0.0000000000  0.0000000000  0.0000000000
==== e(   1) =   -12.01919 eV ==== 
     psi = 0.361*[#  25]+0.360*[#  29]+0.039*[#   6]+0.039*[#  12]+0.039*[#  18]+
          +0.039*[#  24]+0.010*[#   2]+0.010*[#   3]+0.010*[#   5]+0.010*[#   8]+
          +0.010*[#   9]+0.010*[#  11]+0.010*[#  14]+0.010*[#  15]+0.010*[#  17]+
          +0.010*[#  20]+0.010*[#  21]+0.010*[#  23]+
    |psi|^2 = 0.999
==== e(   2) =   -10.42169 eV ==== 
     psi = 0.498*[#  29]+0.498*[#  25]+
    |psi|^2 = 0.996
==== e(   3) =    -1.40494 eV ==== 
     psi = 0.061*[#   1]+0.061*[#   4]+0.061*[#   7]+0.061*[#  10]+0.061*[#  13]+
          +0.061*[#  16]+0.061*[#  19]+0.061*[#  22]+0.056*[#  26]+0.056*[#  27]+
          +0.056*[#  28]+0.056*[#  30]+0.056*[#  31]+0.056*[#  32]+0.012*[#   2]+
          +0.012*[#   3]+0.012*[#   5]+0.012*[#   8]+0.012*[#   9]+0.012*[#  11]+
          +0.012*[#  14]+0.012*[#  15]+0.012*[#  17]+0.012*[#  20]+0.012*[#  21]+
          +0.012*[#  23]+0.008*[#   6]+0.008*[#  12]+0.008*[#  18]+0.008*[#  24]+
    |psi|^2 = 0.999
==== e(   4) =    -1.40494 eV ==== 
     psi = 0.061*[#   1]+0.061*[#   4]+0.061*[#   7]+0.061*[#  10]+0.061*[#  13]+
          +0.061*[#  16]+0.061*[#  19]+0.061*[#  22]+0.056*[#  26]+0.056*[#  27]+
          +0.056*[#  28]+0.056*[#  30]+0.056*[#  31]+0.056*[#  32]+0.012*[#   2]+
          +0.012*[#   3]+0.012*[#   5]+0.012*[#   8]+0.012*[#   9]+0.012*[#  11]+
          +0.012*[#  14]+0.012*[#  15]+0.012*[#  17]+0.012*[#  20]+0.012*[#  21]+
          +0.012*[#  23]+0.008*[#   6]+0.008*[#  12]+0.008*[#  18]+0.008*[#  24]+
    |psi|^2 = 0.999
==== e(   5) =    -1.40494 eV ==== 
     psi = 0.061*[#   1]+0.061*[#   4]+0.061*[#   7]+0.061*[#  10]+0.061*[#  13]+
          +0.061*[#  16]+0.061*[#  19]+0.061*[#  22]+0.056*[#  26]+0.056*[#  27]+
          +0.056*[#  28]+0.056*[#  30]+0.056*[#  31]+0.056*[#  32]+0.012*[#   2]+
          +0.012*[#   3]+0.012*[#   5]+0.012*[#   8]+0.012*[#   9]+0.012*[#  11]+
          +0.012*[#  14]+0.012*[#  15]+0.012*[#  17]+0.012*[#  20]+0.012*[#  21]+
          +0.012*[#  23]+0.008*[#   6]+0.008*[#  12]+0.008*[#  18]+0.008*[#  24]+
    |psi|^2 = 0.999
==== e(   6) =     0.51491 eV ==== 
     psi = 0.083*[#   2]+0.083*[#   3]+0.083*[#   5]+0.083*[#   8]+0.083*[#   9]+
          +0.083*[#  11]+0.083*[#  14]+0.083*[#  15]+0.083*[#  17]+0.083*[#  20]+
          +0.083*[#  21]+0.083*[#  23]+
    |psi|^2 = 0.999
==== e(   7) =     0.51491 eV ==== 
     psi = 0.083*[#   2]+0.083*[#   3]+0.083*[#   5]+0.083*[#   8]+0.083*[#   9]+
          +0.083*[#  11]+0.083*[#  14]+0.083*[#  15]+0.083*[#  17]+0.083*[#  20]+
          +0.083*[#  21]+0.083*[#  23]+
    |psi|^2 = 0.999
==== e(   8) =     1.11505 eV ==== 
     psi = 0.050*[#   2]+0.050*[#   3]+0.050*[#   5]+0.050*[#   8]+0.050*[#   9]+
          +0.050*[#  11]+0.050*[#  14]+0.050*[#  15]+0.050*[#  17]+0.050*[#  20]+
          +0.050*[#  21]+0.050*[#  23]+0.043*[#   1]+0.043*[#   4]+0.043*[#   7]+
          +0.043*[#  10]+0.043*[#  13]+0.043*[#  16]+0.043*[#  19]+0.043*[#  22]+
          +0.009*[#  26]+0.009*[#  27]+0.009*[#  28]+0.009*[#  30]+0.009*[#  31]+
          +0.009*[#  32]+
    |psi|^2 = 0.999
==== e(   9) =     1.11505 eV ==== 
     psi = 0.050*[#   2]+0.050*[#   3]+0.050*[#   5]+0.050*[#   8]+0.050*[#   9]+
          +0.050*[#  11]+0.050*[#  14]+0.050*[#  15]+0.050*[#  17]+0.050*[#  20]+
          +0.050*[#  21]+0.050*[#  23]+0.043*[#   1]+0.043*[#   4]+0.043*[#   7]+
          +0.043*[#  10]+0.043*[#  13]+0.043*[#  16]+0.043*[#  19]+0.043*[#  22]+
          +0.009*[#  26]+0.009*[#  27]+0.009*[#  28]+0.009*[#  30]+0.009*[#  31]+
          +0.009*[#  32]+
    |psi|^2 = 0.999
==== e(  10) =     1.11505 eV ==== 
     psi = 0.050*[#   2]+0.050*[#   3]+0.050*[#   5]+0.050*[#   8]+0.050*[#   9]+
          +0.050*[#  11]+0.050*[#  14]+0.050*[#  15]+0.050*[#  17]+0.050*[#  20]+
          +0.050*[#  21]+0.050*[#  23]+0.043*[#   1]+0.043*[#   4]+0.043*[#   7]+
          +0.043*[#  10]+0.043*[#  13]+0.043*[#  16]+0.043*[#  19]+0.043*[#  22]+
          +0.009*[#  26]+0.009*[#  27]+0.009*[#  28]+0.009*[#  30]+0.009*[#  31]+
          +0.009*[#  32]+
    |psi|^2 = 0.999
==== e(  11) =     1.60201 eV ==== 
     psi = 0.101*[#   6]+0.101*[#  12]+0.101*[#  18]+0.101*[#  24]+0.049*[#   2]+
          +0.049*[#   3]+0.049*[#   5]+0.049*[#   8]+0.049*[#   9]+0.049*[#  11]+
          +0.049*[#  14]+0.049*[#  15]+0.049*[#  17]+0.049*[#  20]+0.049*[#  21]+
          +0.049*[#  23]+
    |psi|^2 = 0.999
==== e(  12) =     2.34304 eV ==== 
     psi = 0.125*[#   1]+0.125*[#   4]+0.125*[#   7]+0.125*[#  10]+0.125*[#  13]+
          +0.125*[#  16]+0.125*[#  19]+0.125*[#  22]+
    |psi|^2 = 1.000
==== e(  13) =     2.34304 eV ==== 
     psi = 0.125*[#   1]+0.125*[#   4]+0.125*[#   7]+0.125*[#  10]+0.125*[#  13]+
          +0.125*[#  16]+0.125*[#  19]+0.125*[#  22]+
    |psi|^2 = 1.000
==== e(  14) =     2.73569 eV ==== 
     psi = 0.079*[#   2]+0.079*[#   3]+0.079*[#   5]+0.079*[#   8]+0.079*[#   9]+
          +0.079*[#  11]+0.079*[#  14]+0.079*[#  15]+0.079*[#  17]+0.079*[#  20]+
          +0.079*[#  21]+0.079*[#  23]+0.005*[#  26]+0.005*[#  27]+0.005*[#  28]+
          +0.005*[#  30]+0.005*[#  31]+0.005*[#  32]+0.003*[#   1]+0.003*[#   4]+
          +0.003*[#   7]+0.003*[#  10]+0.003*[#  13]+0.003*[#  16]+0.003*[#  19]+
          +0.003*[#  22]+
    |psi|^2 = 1.000
==== e(  15) =     2.73569 eV ==== 
     psi = 0.079*[#   2]+0.079*[#   3]+0.079*[#   5]+0.079*[#   8]+0.079*[#   9]+
          +0.079*[#  11]+0.079*[#  14]+0.079*[#  15]+0.079*[#  17]+0.079*[#  20]+
          +0.079*[#  21]+0.079*[#  23]+0.005*[#  26]+0.005*[#  27]+0.005*[#  28]+
          +0.005*[#  30]+0.005*[#  31]+0.005*[#  32]+0.003*[#   1]+0.003*[#   4]+
          +0.003*[#   7]+0.003*[#  10]+0.003*[#  13]+0.003*[#  16]+0.003*[#  19]+
          +0.003*[#  22]+
    |psi|^2 = 1.000
==== e(  16) =     2.73569 eV ==== 
     psi = 0.079*[#   2]+0.079*[#   3]+0.079*[#   5]+0.079*[#   8]+0.079*[#   9]+
          +0.079*[#  11]+0.079*[#  14]+0.079*[#  15]+0.079*[#  17]+0.079*[#  20]+
          +0.079*[#  21]+0.079*[#  23]+0.005*[#  26]+0.005*[#  27]+0.005*[#  28]+
          +0.005*[#  30]+0.005*[#  31]+0.005*[#  32]+0.003*[#   1]+0.003*[#   4]+
          +0.003*[#   7]+0.003*[#  10]+0.003*[#  13]+0.003*[#  16]+0.003*[#  19]+
          +0.003*[#  22]+
    |psi|^2 = 1.000
==== e(  17) =     2.81598 eV ==== 
     psi = 0.119*[#   1]+0.119*[#   4]+0.119*[#   7]+0.119*[#  10]+0.119*[#  13]+
          +0.119*[#  16]+0.119*[#  19]+0.119*[#  22]+0.004*[#   2]+0.004*[#   3]+
          +0.004*[#   5]+0.004*[#   8]+0.004*[#   9]+0.004*[#  11]+0.004*[#  14]+
          +0.004*[#  15]+0.004*[#  17]+0.004*[#  20]+0.004*[#  21]+0.004*[#  23]+
    |psi|^2 = 1.000
==== e(  18) =     2.81598 eV ==== 
     psi = 0.119*[#   1]+0.119*[#   4]+0.119*[#   7]+0.119*[#  10]+0.119*[#  13]+
          +0.119*[#  16]+0.119*[#  19]+0.119*[#  22]+0.004*[#   2]+0.004*[#   3]+
          +0.004*[#   5]+0.004*[#   8]+0.004*[#   9]+0.004*[#  11]+0.004*[#  14]+
          +0.004*[#  15]+0.004*[#  17]+0.004*[#  20]+0.004*[#  21]+0.004*[#  23]+
    |psi|^2 = 1.000
==== e(  19) =     2.81598 eV ==== 
     psi = 0.119*[#   1]+0.119*[#   4]+0.119*[#   7]+0.119*[#  10]+0.119*[#  13]+
          +0.119*[#  16]+0.119*[#  19]+0.119*[#  22]+0.004*[#   2]+0.004*[#   3]+
          +0.004*[#   5]+0.004*[#   8]+0.004*[#   9]+0.004*[#  11]+0.004*[#  14]+
          +0.004*[#  15]+0.004*[#  17]+0.004*[#  20]+0.004*[#  21]+0.004*[#  23]+
    |psi|^2 = 1.000
==== e(  20) =     3.01867 eV ==== 
     psi = 0.079*[#   2]+0.079*[#   3]+0.079*[#   5]+0.079*[#   8]+0.079*[#   9]+
          +0.079*[#  11]+0.079*[#  14]+0.079*[#  15]+0.079*[#  17]+0.079*[#  20]+
          +0.079*[#  21]+0.079*[#  23]+0.006*[#   1]+0.006*[#   4]+0.006*[#   7]+
          +0.006*[#  10]+0.006*[#  13]+0.006*[#  16]+0.006*[#  19]+0.006*[#  22]+
    |psi|^2 = 1.000
==== e(  21) =     3.01867 eV ==== 
     psi = 0.079*[#   2]+0.079*[#   3]+0.079*[#   5]+0.079*[#   8]+0.079*[#   9]+
          +0.079*[#  11]+0.079*[#  14]+0.079*[#  15]+0.079*[#  17]+0.079*[#  20]+
          +0.079*[#  21]+0.079*[#  23]+0.006*[#   1]+0.006*[#   4]+0.006*[#   7]+
          +0.006*[#  10]+0.006*[#  13]+0.006*[#  16]+0.006*[#  19]+0.006*[#  22]+
    |psi|^2 = 1.000
==== e(  22) =     3.01867 eV ==== 
     psi = 0.079*[#   2]+0.079*[#   3]+0.079*[#   5]+0.079*[#   8]+0.079*[#   9]+
          +0.079*[#  11]+0.079*[#  14]+0.079*[#  15]+0.079*[#  17]+0.079*[#  20]+
          +0.079*[#  21]+0.079*[#  23]+0.006*[#   1]+0.006*[#   4]+0.006*[#   7]+
          +0.006*[#  10]+0.006*[#  13]+0.006*[#  16]+0.006*[#  19]+0.006*[#  22]+
    |psi|^2 = 1.000
==== e(  23) =     4.13336 eV ==== 
     psi = 0.165*[#  26]+0.165*[#  27]+0.165*[#  28]+0.165*[#  30]+0.165*[#  31]+
          +0.165*[#  32]+
    |psi|^2 = 0.988
==== e(  24) =     4.13336 eV ==== 
     psi = 0.165*[#  26]+0.165*[#  27]+0.165*[#  28]+0.165*[#  30]+0.165*[#  31]+
          +0.165*[#  32]+
    |psi|^2 = 0.988
==== e(  25) =     4.13336 eV ==== 
     psi = 0.165*[#  26]+0.165*[#  27]+0.165*[#  28]+0.165*[#  30]+0.165*[#  31]+
          +0.165*[#  32]+
    |psi|^2 = 0.988
==== e(  26) =     7.07000 eV ==== 
     psi = 0.075*[#  26]+0.075*[#  27]+0.075*[#  28]+0.075*[#  30]+0.075*[#  31]+
          +0.075*[#  32]+0.031*[#   6]+0.031*[#  12]+0.031*[#  18]+0.031*[#  24]+
          +0.023*[#   2]+0.023*[#   3]+0.023*[#   5]+0.023*[#   8]+0.023*[#   9]+
          +0.023*[#  11]+0.023*[#  14]+0.023*[#  15]+0.023*[#  17]+0.023*[#  20]+
          +0.023*[#  21]+0.023*[#  23]+0.018*[#   1]+0.018*[#   4]+0.018*[#   7]+
          +0.018*[#  10]+0.018*[#  13]+0.018*[#  16]+0.018*[#  19]+0.018*[#  22]+
    |psi|^2 = 0.995
==== e(  27) =     7.07000 eV ==== 
     psi = 0.075*[#  26]+0.075*[#  27]+0.075*[#  28]+0.075*[#  30]+0.075*[#  31]+
          +0.075*[#  32]+0.031*[#   6]+0.031*[#  12]+0.031*[#  18]+0.031*[#  24]+
          +0.023*[#   2]+0.023*[#   3]+0.023*[#   5]+0.023*[#   8]+0.023*[#   9]+
          +0.023*[#  11]+0.023*[#  14]+0.023*[#  15]+0.023*[#  17]+0.023*[#  20]+
          +0.023*[#  21]+0.023*[#  23]+0.018*[#   1]+0.018*[#   4]+0.018*[#   7]+
          +0.018*[#  10]+0.018*[#  13]+0.018*[#  16]+0.018*[#  19]+0.018*[#  22]+
    |psi|^2 = 0.995
==== e(  28) =     7.07000 eV ==== 
     psi = 0.075*[#  26]+0.075*[#  27]+0.075*[#  28]+0.075*[#  30]+0.075*[#  31]+
          +0.075*[#  32]+0.031*[#   6]+0.031*[#  12]+0.031*[#  18]+0.031*[#  24]+
          +0.023*[#   2]+0.023*[#   3]+0.023*[#   5]+0.023*[#   8]+0.023*[#   9]+
          +0.023*[#  11]+0.023*[#  14]+0.023*[#  15]+0.023*[#  17]+0.023*[#  20]+
          +0.023*[#  21]+0.023*[#  23]+0.018*[#   1]+0.018*[#   4]+0.018*[#   7]+
          +0.018*[#  10]+0.018*[#  13]+0.018*[#  16]+0.018*[#  19]+0.018*[#  22]+
    |psi|^2 = 0.995
==== e(  29) =     7.86125 eV ==== 
     psi = 0.135*[#  25]+0.135*[#  29]+0.107*[#   6]+0.107*[#  12]+0.107*[#  18]+
          +0.107*[#  24]+0.023*[#   2]+0.023*[#   3]+0.023*[#   5]+0.023*[#   8]+
          +0.023*[#   9]+0.023*[#  11]+0.023*[#  14]+0.023*[#  15]+0.023*[#  17]+
          +0.023*[#  20]+0.023*[#  21]+0.023*[#  23]+
    |psi|^2 = 0.982
==== e(  30) =     9.98153 eV ==== 
     psi = 
    |psi|^2 = 0.000
==== e(  31) =     9.98153 eV ==== 
     psi = 
    |psi|^2 = 0.000
==== e(  32) =    16.32605 eV ==== 
     psi = 0.190*[#   6]+0.190*[#  12]+0.190*[#  18]+0.190*[#  24]+0.020*[#  26]+
          +0.020*[#  27]+0.020*[#  28]+0.020*[#  30]+0.020*[#  31]+0.020*[#  32]+
          +0.002*[#   2]+0.002*[#   3]+0.002*[#   5]+0.002*[#   8]+0.002*[#   9]+
          +0.002*[#  11]+0.002*[#  14]+0.002*[#  15]+0.002*[#  17]+0.002*[#  20]+
          +0.002*[#  21]+0.002*[#  23]+
    |psi|^2 = 0.911

 k =   0.0000000000  0.0000000000  0.2500000000
==== e(   1) =   -11.83435 eV ==== 
     psi = 0.375*[#  25]+0.373*[#  29]+0.035*[#   6]+0.035*[#  12]+0.035*[#  18]+
          +0.035*[#  24]+0.009*[#   2]+0.009*[#   3]+0.009*[#   5]+0.009*[#   8]+
          +0.009*[#   9]+0.009*[#  11]+0.009*[#  14]+0.009*[#  15]+0.009*[#  17]+
          +0.009*[#  20]+0.009*[#  21]+0.009*[#  23]+
    |psi|^2 = 0.999
==== e(   2) =   -10.73236 eV ==== 
     psi = 0.468*[#  29]+0.467*[#  25]+0.008*[#   6]+0.008*[#  12]+0.008*[#  18]+
          +0.008*[#  24]+0.002*[#   2]+0.002*[#   3]+0.002*[#   5]+0.002*[#   8]+
          +0.002*[#   9]+0.002*[#  11]+0.002*[#  14]+0.002*[#  15]+0.002*[#  17]+
          +0.002*[#  20]+0.002*[#  21]+0.002*[#  23]+
    |psi|^2 = 0.997
==== e(   3) =    -0.98148 eV ==== 
     psi = 0.060*[#   1]+0.060*[#   4]+0.060*[#   7]+0.060*[#  10]+0.060*[#  13]+
          +0.060*[#  16]+0.060*[#  19]+0.060*[#  22]+0.056*[#  26]+0.056*[#  27]+
          +0.056*[#  28]+0.056*[#  30]+0.056*[#  31]+0.056*[#  32]+0.013*[#   2]+
          +0.013*[#   3]+0.013*[#   5]+0.013*[#   8]+0.013*[#   9]+0.013*[#  11]+
          +0.013*[#  14]+0.013*[#  15]+0.013*[#  17]+0.013*[#  20]+0.013*[#  21]+
          +0.013*[#  23]+0.006*[#   6]+0.006*[#  12]+0.006*[#  18]+0.006*[#  24]+
    |psi|^2 = 0.999
==== e(   4) =    -0.98148 eV ==== 
     psi = 0.060*[#   1]+0.060*[#   4]+0.060*[#   7]+0.060*[#  10]+0.060*[#  13]+
          +0.060*[#  16]+0.060*[#  19]+0.060*[#  22]+0.056*[#  26]+0.056*[#  27]+
          +0.056*[#  28]+0.056*[#  30]+0.056*[#  31]+0.056*[#  32]+0.013*[#   2]+
          +0.013*[#   3]+0.013*[#   5]+0.013*[#   8]+0.013*[#   9]+0.013*[#  11]+
          +0.013*[#  14]+0.013*[#  15]+0.013*[#  17]+0.013*[#  20]+0.013*[#  21]+
          +0.013*[#  23]+0.006*[#   6]+0.006*[#  12]+0.006*[#  18]+0.006*[#  24]+
    |psi|^2 = 0.999
==== e(   5) =    -0.88378 eV ==== 
     psi = 0.059*[#   1]+0.059*[#   4]+0.059*[#   7]+0.059*[#  10]+0.059*[#  13]+
          +0.059*[#  16]+0.059*[#  19]+0.059*[#  22]+0.056*[#  26]+0.056*[#  27]+
          +0.056*[#  28]+0.056*[#  30]+0.056*[#  31]+0.056*[#  32]+0.012*[#   2]+
          +0.012*[#   3]+0.012*[#   5]+0.012*[#   8]+0.012*[#   9]+0.012*[#  11]+
          +0.012*[#  14]+0.012*[#  15]+0.012*[#  17]+0.012*[#  20]+0.012*[#  21]+
          +0.012*[#  23]+0.009*[#   6]+0.009*[#  12]+0.009*[#  18]+0.009*[#  24]+
          +0.007*[#  25]+0.007*[#  29]+
    |psi|^2 = 0.998
==== e(   6) =     0.55708 eV ==== 
     psi = 0.076*[#   2]+0.076*[#   3]+0.076*[#   5]+0.076*[#   8]+0.076*[#   9]+
          +0.076*[#  11]+0.076*[#  14]+0.076*[#  15]+0.076*[#  17]+0.076*[#  20]+
          +0.076*[#  21]+0.076*[#  23]+0.010*[#  26]+0.010*[#  27]+0.010*[#  28]+
          +0.010*[#  30]+0.010*[#  31]+0.010*[#  32]+0.002*[#   1]+0.002*[#   4]+
          +0.002*[#   7]+0.002*[#  10]+0.002*[#  13]+0.002*[#  16]+0.002*[#  19]+
          +0.002*[#  22]+
    |psi|^2 = 0.998
==== e(   7) =     0.74618 eV ==== 
     psi = 0.083*[#   2]+0.083*[#   3]+0.083*[#   5]+0.083*[#   8]+0.083*[#   9]+
          +0.083*[#  11]+0.083*[#  14]+0.083*[#  15]+0.083*[#  17]+0.083*[#  20]+
          +0.083*[#  21]+0.083*[#  23]+
    |psi|^2 = 0.997
==== e(   8) =     1.00124 eV ==== 
     psi = 0.043*[#   1]+0.043*[#   4]+0.043*[#   7]+0.043*[#  10]+0.043*[#  13]+
          +0.043*[#  16]+0.043*[#  19]+0.043*[#  22]+0.040*[#   2]+0.040*[#   3]+
          +0.040*[#   5]+0.040*[#   8]+0.040*[#   9]+0.040*[#  11]+0.040*[#  14]+
          +0.040*[#  15]+0.040*[#  17]+0.040*[#  20]+0.040*[#  21]+0.040*[#  23]+
          +0.029*[#  26]+0.029*[#  27]+0.029*[#  28]+0.029*[#  30]+0.029*[#  31]+
          +0.029*[#  32]+
    |psi|^2 = 0.998
==== e(   9) =     1.00124 eV ==== 
     psi = 0.043*[#   1]+0.043*[#   4]+0.043*[#   7]+0.043*[#  10]+0.043*[#  13]+
          +0.043*[#  16]+0.043*[#  19]+0.043*[#  22]+0.040*[#   2]+0.040*[#   3]+
          +0.040*[#   5]+0.040*[#   8]+0.040*[#   9]+0.040*[#  11]+0.040*[#  14]+
          +0.040*[#  15]+0.040*[#  17]+0.040*[#  20]+0.040*[#  21]+0.040*[#  23]+
          +0.029*[#  26]+0.029*[#  27]+0.029*[#  28]+0.029*[#  30]+0.029*[#  31]+
          +0.029*[#  32]+
    |psi|^2 = 0.998
==== e(  10) =     1.17337 eV ==== 
     psi = 0.051*[#   2]+0.051*[#   3]+0.051*[#   5]+0.051*[#   8]+0.051*[#   9]+
          +0.051*[#  11]+0.051*[#  14]+0.051*[#  15]+0.051*[#  17]+0.051*[#  20]+
          +0.051*[#  21]+0.051*[#  23]+0.042*[#   1]+0.042*[#   4]+0.042*[#   7]+
          +0.042*[#  10]+0.042*[#  13]+0.042*[#  16]+0.042*[#  19]+0.042*[#  22]+
          +0.006*[#  26]+0.006*[#  27]+0.006*[#  28]+0.006*[#  30]+0.006*[#  31]+
          +0.006*[#  32]+0.003*[#   6]+0.003*[#  12]+0.003*[#  18]+0.003*[#  24]+
    |psi|^2 = 0.999
==== e(  11) =     1.74040 eV ==== 
     psi = 0.068*[#   6]+0.068*[#  12]+0.068*[#  18]+0.068*[#  24]+0.040*[#   1]+
          +0.040*[#   4]+0.040*[#   7]+0.040*[#  10]+0.040*[#  13]+0.040*[#  16]+
          +0.040*[#  19]+0.040*[#  22]+0.033*[#   2]+0.033*[#   3]+0.033*[#   5]+
          +0.033*[#   8]+0.033*[#   9]+0.033*[#  11]+0.033*[#  14]+0.033*[#  15]+
          +0.033*[#  17]+0.033*[#  20]+0.033*[#  21]+0.033*[#  23]+0.002*[#  26]+
          +0.002*[#  27]+0.002*[#  28]+0.002*[#  30]+0.002*[#  31]+0.002*[#  32]+
    |psi|^2 = 0.999
==== e(  12) =     2.12737 eV ==== 
     psi = 0.068*[#   1]+0.068*[#   4]+0.068*[#   7]+0.068*[#  10]+0.068*[#  13]+
          +0.068*[#  16]+0.068*[#  19]+0.068*[#  22]+0.025*[#   2]+0.025*[#   3]+
          +0.025*[#   5]+0.025*[#   8]+0.025*[#   9]+0.025*[#  11]+0.025*[#  14]+
          +0.025*[#  15]+0.025*[#  17]+0.025*[#  20]+0.025*[#  21]+0.025*[#  23]+
          +0.019*[#   6]+0.019*[#  12]+0.019*[#  18]+0.019*[#  24]+0.011*[#  26]+
          +0.011*[#  27]+0.011*[#  28]+0.011*[#  30]+0.011*[#  31]+0.011*[#  32]+
          +0.004*[#  25]+0.004*[#  29]+
    |psi|^2 = 0.999
==== e(  13) =     2.16953 eV ==== 
     psi = 0.053*[#   2]+0.053*[#   3]+0.053*[#   5]+0.053*[#   8]+0.053*[#   9]+
          +0.053*[#  11]+0.053*[#  14]+0.053*[#  15]+0.053*[#  17]+0.053*[#  20]+
          +0.053*[#  21]+0.053*[#  23]+0.029*[#   1]+0.029*[#   4]+0.029*[#   7]+
          +0.029*[#  10]+0.029*[#  13]+0.029*[#  16]+0.029*[#  19]+0.029*[#  22]+
          +0.022*[#  26]+0.022*[#  27]+0.022*[#  28]+0.022*[#  30]+0.022*[#  31]+
          +0.022*[#  32]+
    |psi|^2 = 0.999
==== e(  14) =     2.16953 eV ==== 
     psi = 0.053*[#   2]+0.053*[#   3]+0.053*[#   5]+0.053*[#   8]+0.053*[#   9]+
          +0.053*[#  11]+0.053*[#  14]+0.053*[#  15]+0.053*[#  17]+0.053*[#  20]+
          +0.053*[#  21]+0.053*[#  23]+0.029*[#   1]+0.029*[#   4]+0.029*[#   7]+
          +0.029*[#  10]+0.029*[#  13]+0.029*[#  16]+0.029*[#  19]+0.029*[#  22]+
          +0.022*[#  26]+0.022*[#  27]+0.022*[#  28]+0.022*[#  30]+0.022*[#  31]+
          +0.022*[#  32]+
    |psi|^2 = 0.999
==== e(  15) =     2.41218 eV ==== 
     psi = 0.125*[#   1]+0.125*[#   4]+0.125*[#   7]+0.125*[#  10]+0.125*[#  13]+
          +0.125*[#  16]+0.125*[#  19]+0.125*[#  22]+
    |psi|^2 = 1.000
==== e(  16) =     2.44303 eV ==== 
     psi = 0.080*[#   2]+0.080*[#   3]+0.080*[#   5]+0.080*[#   8]+0.080*[#   9]+
          +0.080*[#  11]+0.080*[#  14]+0.080*[#  15]+0.080*[#  17]+0.080*[#  20]+
          +0.080*[#  21]+0.080*[#  23]+0.003*[#   1]+0.003*[#   4]+0.003*[#   7]+
          +0.003*[#  10]+0.003*[#  13]+0.003*[#  16]+0.003*[#  19]+0.003*[#  22]+
    |psi|^2 = 0.993
==== e(  17) =     2.58752 eV ==== 
     psi = 0.077*[#   2]+0.077*[#   3]+0.077*[#   5]+0.077*[#   8]+0.077*[#   9]+
          +0.077*[#  11]+0.077*[#  14]+0.077*[#  15]+0.077*[#  17]+0.077*[#  20]+
          +0.077*[#  21]+0.077*[#  23]+0.007*[#  26]+0.007*[#  27]+0.007*[#  28]+
          +0.007*[#  30]+0.007*[#  31]+0.007*[#  32]+0.005*[#  25]+0.005*[#  29]+
          +0.003*[#   1]+0.003*[#   4]+0.003*[#   7]+0.003*[#  10]+0.003*[#  13]+
          +0.003*[#  16]+0.003*[#  19]+0.003*[#  22]+
    |psi|^2 = 0.998
==== e(  18) =     2.67288 eV ==== 
     psi = 0.087*[#   1]+0.087*[#   4]+0.087*[#   7]+0.087*[#  10]+0.087*[#  13]+
          +0.087*[#  16]+0.087*[#  19]+0.087*[#  22]+0.025*[#   2]+0.025*[#   3]+
          +0.025*[#   5]+0.025*[#   8]+0.025*[#   9]+0.025*[#  11]+0.025*[#  14]+
          +0.025*[#  15]+0.025*[#  17]+0.025*[#  20]+0.025*[#  21]+0.025*[#  23]+
    |psi|^2 = 1.000
==== e(  19) =     2.67288 eV ==== 
     psi = 0.087*[#   1]+0.087*[#   4]+0.087*[#   7]+0.087*[#  10]+0.087*[#  13]+
          +0.087*[#  16]+0.087*[#  19]+0.087*[#  22]+0.025*[#   2]+0.025*[#   3]+
          +0.025*[#   5]+0.025*[#   8]+0.025*[#   9]+0.025*[#  11]+0.025*[#  14]+
          +0.025*[#  15]+0.025*[#  17]+0.025*[#  20]+0.025*[#  21]+0.025*[#  23]+
    |psi|^2 = 1.000
==== e(  20) =     2.76132 eV ==== 
     psi = 0.122*[#   1]+0.122*[#   4]+0.122*[#   7]+0.122*[#  10]+0.122*[#  13]+
          +0.122*[#  16]+0.122*[#  19]+0.122*[#  22]+0.002*[#   2]+0.002*[#   3]+
          +0.002*[#   5]+0.002*[#   8]+0.002*[#   9]+0.002*[#  11]+0.002*[#  14]+
          +0.002*[#  15]+0.002*[#  17]+0.002*[#  20]+0.002*[#  21]+0.002*[#  23]+
    |psi|^2 = 1.000
==== e(  21) =     2.94081 eV ==== 
     psi = 0.082*[#   2]+0.082*[#   3]+0.082*[#   5]+0.082*[#   8]+0.082*[#   9]+
          +0.082*[#  11]+0.082*[#  14]+0.082*[#  15]+0.082*[#  17]+0.082*[#  20]+
          +0.082*[#  21]+0.082*[#  23]+0.002*[#   1]+0.002*[#   4]+0.002*[#   7]+
          +0.002*[#  10]+0.002*[#  13]+0.002*[#  16]+0.002*[#  19]+0.002*[#  22]+
    |psi|^2 = 1.000
==== e(  22) =     2.94081 eV ==== 
     psi = 0.082*[#   2]+0.082*[#   3]+0.082*[#   5]+0.082*[#   8]+0.082*[#   9]+
          +0.082*[#  11]+0.082*[#  14]+0.082*[#  15]+0.082*[#  17]+0.082*[#  20]+
          +0.082*[#  21]+0.082*[#  23]+0.002*[#   1]+0.002*[#   4]+0.002*[#   7]+
          +0.002*[#  10]+0.002*[#  13]+0.002*[#  16]+0.002*[#  19]+0.002*[#  22]+
    |psi|^2 = 1.000
==== e(  23) =     3.88221 eV ==== 
     psi = 0.116*[#  26]+0.116*[#  27]+0.116*[#  28]+0.116*[#  30]+0.116*[#  31]+
          +0.116*[#  32]+0.022*[#   6]+0.022*[#  12]+0.022*[#  18]+0.022*[#  24]+
          +0.016*[#  25]+0.016*[#  29]+0.015*[#   1]+0.015*[#   4]+0.015*[#   7]+
          +0.015*[#  10]+0.015*[#  13]+0.015*[#  16]+0.015*[#  19]+0.015*[#  22]+
          +0.004*[#   2]+0.004*[#   3]+0.004*[#   5]+0.004*[#   8]+0.004*[#   9]+
          +0.004*[#  11]+0.004*[#  14]+0.004*[#  15]+0.004*[#  17]+0.004*[#  20]+
          +0.004*[#  21]+0.004*[#  23]+
    |psi|^2 = 0.987
==== e(  24) =     4.92468 eV ==== 
     psi = 0.125*[#  26]+0.125*[#  27]+0.125*[#  28]+0.125*[#  30]+0.125*[#  31]+
          +0.125*[#  32]+0.014*[#   1]+0.014*[#   4]+0.014*[#   7]+0.014*[#  10]+
          +0.014*[#  13]+0.014*[#  16]+0.014*[#  19]+0.014*[#  22]+0.011*[#   2]+
          +0.011*[#   3]+0.011*[#   5]+0.011*[#   8]+0.011*[#   9]+0.011*[#  11]+
          +0.011*[#  14]+0.011*[#  15]+0.011*[#  17]+0.011*[#  20]+0.011*[#  21]+
          +0.011*[#  23]+
    |psi|^2 = 0.988
==== e(  25) =     4.92468 eV ==== 
     psi = 0.125*[#  26]+0.125*[#  27]+0.125*[#  28]+0.125*[#  30]+0.125*[#  31]+
          +0.125*[#  32]+0.014*[#   1]+0.014*[#   4]+0.014*[#   7]+0.014*[#  10]+
          +0.014*[#  13]+0.014*[#  16]+0.014*[#  19]+0.014*[#  22]+0.011*[#   2]+
          +0.011*[#   3]+0.011*[#   5]+0.011*[#   8]+0.011*[#   9]+0.011*[#  11]+
          +0.011*[#  14]+0.011*[#  15]+0.011*[#  17]+0.011*[#  20]+0.011*[#  21]+
          +0.011*[#  23]+
    |psi|^2 = 0.988
==== e(  26) =     5.82588 eV ==== 
     psi = 0.069*[#   6]+0.069*[#  12]+0.069*[#  18]+0.069*[#  24]+0.055*[#  26]+
          +0.055*[#  27]+0.055*[#  28]+0.055*[#  30]+0.055*[#  31]+0.055*[#  32]+
          +0.021*[#   1]+0.021*[#   4]+0.021*[#   7]+0.021*[#  10]+0.021*[#  13]+
          +0.021*[#  16]+0.021*[#  19]+0.021*[#  22]+0.016*[#   2]+0.016*[#   3]+
          +0.016*[#   5]+0.016*[#   8]+0.016*[#   9]+0.016*[#  11]+0.016*[#  14]+
          +0.016*[#  15]+0.016*[#  17]+0.016*[#  20]+0.016*[#  21]+0.016*[#  23]+
    |psi|^2 = 0.965
==== e(  27) =     6.88231 eV ==== 
     psi = 0.077*[#  26]+0.077*[#  27]+0.077*[#  28]+0.077*[#  30]+0.077*[#  31]+
          +0.077*[#  32]+0.028*[#   6]+0.028*[#  12]+0.028*[#  18]+0.028*[#  24]+
          +0.025*[#   2]+0.025*[#   3]+0.025*[#   5]+0.025*[#   8]+0.025*[#   9]+
          +0.025*[#  11]+0.025*[#  14]+0.025*[#  15]+0.025*[#  17]+0.025*[#  20]+
          +0.025*[#  21]+0.025*[#  23]+0.015*[#   1]+0.015*[#   4]+0.015*[#   7]+
          +0.015*[#  10]+0.015*[#  13]+0.015*[#  16]+0.015*[#  19]+0.015*[#  22]+
    |psi|^2 = 0.994
==== e(  28) =     6.88231 eV ==== 
     psi = 0.077*[#  26]+0.077*[#  27]+0.077*[#  28]+0.077*[#  30]+0.077*[#  31]+
          +0.077*[#  32]+0.028*[#   6]+0.028*[#  12]+0.028*[#  18]+0.028*[#  24]+
          +0.025*[#   2]+0.025*[#   3]+0.025*[#   5]+0.025*[#   8]+0.025*[#   9]+
          +0.025*[#  11]+0.025*[#  14]+0.025*[#  15]+0.025*[#  17]+0.025*[#  20]+
          +0.025*[#  21]+0.025*[#  23]+0.015*[#   1]+0.015*[#   4]+0.015*[#   7]+
          +0.015*[#  10]+0.015*[#  13]+0.015*[#  16]+0.015*[#  19]+0.015*[#  22]+
    |psi|^2 = 0.994
==== e(  29) =     8.70602 eV ==== 
     psi = 0.103*[#   6]+0.103*[#  12]+0.103*[#  18]+0.103*[#  24]+0.101*[#  25]+
          +0.101*[#  29]+0.025*[#  26]+0.025*[#  27]+0.025*[#  28]+0.025*[#  30]+
          +0.025*[#  31]+0.025*[#  32]+0.018*[#   2]+0.018*[#   3]+0.018*[#   5]+
          +0.018*[#   8]+0.018*[#   9]+0.018*[#  11]+0.018*[#  14]+0.018*[#  15]+
          +0.018*[#  17]+0.018*[#  20]+0.018*[#  21]+0.018*[#  23]+
    |psi|^2 = 0.982
==== e(  30) =    10.82034 eV ==== 
     psi = 
    |psi|^2 = 0.007
==== e(  31) =    10.86223 eV ==== 
     psi = 0.078*[#   6]+0.078*[#  12]+0.078*[#  18]+0.078*[#  24]+0.033*[#  26]+
          +0.033*[#  27]+0.033*[#  28]+0.033*[#  30]+0.033*[#  31]+0.033*[#  32]+
          +0.009*[#  25]+0.009*[#  29]+0.007*[#   2]+0.007*[#   3]+0.007*[#   5]+
          +0.007*[#   8]+0.007*[#   9]+0.007*[#  11]+0.007*[#  14]+0.007*[#  15]+
          +0.007*[#  17]+0.007*[#  20]+0.007*[#  21]+0.007*[#  23]+
    |psi|^2 = 0.613
==== e(  32) =    15.51828 eV ==== 
     psi = 
    |psi|^2 = 0.002

 k =   0.0000000000  0.0000000000 -0.5000000000
==== e(   1) =   -11.34438 eV ==== 
     psi = 0.826*[#  25]+0.023*[#   6]+0.023*[#  12]+0.023*[#  18]+0.023*[#  24]+
          +0.006*[#   2]+0.006*[#   3]+0.006*[#   5]+0.006*[#   8]+0.006*[#   9]+
          +0.006*[#  11]+0.006*[#  14]+0.006*[#  15]+0.006*[#  17]+0.006*[#  20]+
          +0.006*[#  21]+0.006*[#  23]+
    |psi|^2 = 0.998
==== e(   2) =   -11.34270 eV ==== 
     psi = 0.826*[#  29]+0.023*[#   6]+0.023*[#  12]+0.023*[#  18]+0.023*[#  24]+
          +0.006*[#   2]+0.006*[#   3]+0.006*[#   5]+0.006*[#   8]+0.006*[#   9]+
          +0.006*[#  11]+0.006*[#  14]+0.006*[#  15]+0.006*[#  17]+0.006*[#  20]+
          +0.006*[#  21]+0.006*[#  23]+
    |psi|^2 = 0.998
==== e(   3) =    -0.10405 eV ==== 
     psi = 0.089*[#   1]+0.089*[#   4]+0.089*[#   7]+0.089*[#  10]+0.089*[#  13]+
          +0.089*[#  16]+0.089*[#  19]+0.089*[#  22]+0.041*[#  26]+0.041*[#  27]+
          +0.041*[#  28]+0.041*[#  30]+0.041*[#  31]+0.041*[#  32]+0.003*[#   2]+
          +0.003*[#   3]+0.003*[#   5]+0.003*[#   8]+0.003*[#   9]+0.003*[#  11]+
          +0.003*[#  14]+0.003*[#  15]+0.003*[#  17]+0.003*[#  20]+0.003*[#  21]+
          +0.003*[#  23]+
    |psi|^2 = 0.997
==== e(   4) =    -0.10405 eV ==== 
     psi = 0.089*[#   1]+0.089*[#   4]+0.089*[#   7]+0.089*[#  10]+0.089*[#  13]+
          +0.089*[#  16]+0.089*[#  19]+0.089*[#  22]+0.041*[#  26]+0.041*[#  27]+
          +0.041*[#  28]+0.041*[#  30]+0.041*[#  31]+0.041*[#  32]+0.003*[#   2]+
          +0.003*[#   3]+0.003*[#   5]+0.003*[#   8]+0.003*[#   9]+0.003*[#  11]+
          +0.003*[#  14]+0.003*[#  15]+0.003*[#  17]+0.003*[#  20]+0.003*[#  21]+
          +0.003*[#  23]+
    |psi|^2 = 0.997
==== e(   5) =     0.19725 eV ==== 
     psi = 0.098*[#  26]+0.098*[#  27]+0.098*[#  28]+0.038*[#   1]+0.038*[#   4]+
          +0.038*[#   7]+0.038*[#  10]+0.038*[#  13]+0.038*[#  16]+0.038*[#  19]+
          +0.038*[#  22]+0.030*[#   2]+0.030*[#   3]+0.030*[#   5]+0.030*[#   8]+
          +0.030*[#   9]+0.030*[#  11]+0.030*[#  14]+0.030*[#  15]+0.030*[#  17]+
          +0.030*[#  20]+0.030*[#  21]+0.030*[#  23]+0.018*[#  29]+0.007*[#   6]+
          +0.007*[#  12]+0.007*[#  18]+0.007*[#  24]+
    |psi|^2 = 0.997
==== e(   6) =     0.19727 eV ==== 
     psi = 0.098*[#  30]+0.098*[#  31]+0.098*[#  32]+0.038*[#   1]+0.038*[#   4]+
          +0.038*[#   7]+0.038*[#  10]+0.038*[#  13]+0.038*[#  16]+0.038*[#  19]+
          +0.038*[#  22]+0.030*[#   2]+0.030*[#   3]+0.030*[#   5]+0.030*[#   8]+
          +0.030*[#   9]+0.030*[#  11]+0.030*[#  14]+0.030*[#  15]+0.030*[#  17]+
          +0.030*[#  20]+0.030*[#  21]+0.030*[#  23]+0.018*[#  25]+0.007*[#   6]+
          +0.007*[#  12]+0.007*[#  18]+0.007*[#  24]+
    |psi|^2 = 0.997
==== e(   7) =     0.22025 eV ==== 
     psi = 0.070*[#  26]+0.070*[#  27]+0.070*[#  28]+0.070*[#  30]+0.070*[#  31]+
          +0.070*[#  32]+0.041*[#   2]+0.041*[#   3]+0.041*[#   5]+0.041*[#   8]+
          +0.041*[#   9]+0.041*[#  11]+0.041*[#  14]+0.041*[#  15]+0.041*[#  17]+
          +0.041*[#  20]+0.041*[#  21]+0.041*[#  23]+0.009*[#   1]+0.009*[#   4]+
          +0.009*[#   7]+0.009*[#  10]+0.009*[#  13]+0.009*[#  16]+0.009*[#  19]+
          +0.009*[#  22]+0.004*[#   6]+0.004*[#  12]+0.004*[#  18]+0.004*[#  24]+
    |psi|^2 = 0.999
==== e(   8) =     0.22025 eV ==== 
     psi = 0.070*[#  26]+0.070*[#  27]+0.070*[#  28]+0.070*[#  30]+0.070*[#  31]+
          +0.070*[#  32]+0.041*[#   2]+0.041*[#   3]+0.041*[#   5]+0.041*[#   8]+
          +0.041*[#   9]+0.041*[#  11]+0.041*[#  14]+0.041*[#  15]+0.041*[#  17]+
          +0.041*[#  20]+0.041*[#  21]+0.041*[#  23]+0.009*[#   1]+0.009*[#   4]+
          +0.009*[#   7]+0.009*[#  10]+0.009*[#  13]+0.009*[#  16]+0.009*[#  19]+
          +0.009*[#  22]+0.004*[#   6]+0.004*[#  12]+0.004*[#  18]+0.004*[#  24]+
    |psi|^2 = 0.999
==== e(   9) =     1.27202 eV ==== 
     psi = 0.056*[#   1]+0.056*[#   4]+0.056*[#   7]+0.056*[#  10]+0.056*[#  13]+
          +0.056*[#  16]+0.056*[#  19]+0.056*[#  22]+0.042*[#   2]+0.042*[#   3]+
          +0.042*[#   5]+0.042*[#   8]+0.042*[#   9]+0.042*[#  11]+0.042*[#  14]+
          +0.042*[#  15]+0.042*[#  17]+0.042*[#  20]+0.042*[#  21]+0.042*[#  23]+
          +0.013*[#   6]+0.013*[#  12]+0.013*[#  18]+0.013*[#  24]+
    |psi|^2 = 0.999
==== e(  10) =     1.27202 eV ==== 
     psi = 0.056*[#   1]+0.056*[#   4]+0.056*[#   7]+0.056*[#  10]+0.056*[#  13]+
          +0.056*[#  16]+0.056*[#  19]+0.056*[#  22]+0.042*[#   2]+0.042*[#   3]+
          +0.042*[#   5]+0.042*[#   8]+0.042*[#   9]+0.042*[#  11]+0.042*[#  14]+
          +0.042*[#  15]+0.042*[#  17]+0.042*[#  20]+0.042*[#  21]+0.042*[#  23]+
          +0.013*[#   6]+0.013*[#  12]+0.013*[#  18]+0.013*[#  24]+
    |psi|^2 = 0.999
==== e(  11) =     1.44945 eV ==== 
     psi = 0.082*[#   2]+0.082*[#   3]+0.082*[#   5]+0.082*[#   8]+0.082*[#   9]+
          +0.082*[#  11]+0.082*[#  14]+0.082*[#  15]+0.082*[#  17]+0.082*[#  20]+
          +0.082*[#  21]+0.082*[#  23]+
    |psi|^2 = 0.994
==== e(  12) =     1.44947 eV ==== 
     psi = 0.082*[#   2]+0.082*[#   3]+0.082*[#   5]+0.082*[#   8]+0.082*[#   9]+
          +0.082*[#  11]+0.082*[#  14]+0.082*[#  15]+0.082*[#  17]+0.082*[#  20]+
          +0.082*[#  21]+0.082*[#  23]+
    |psi|^2 = 0.994
==== e(  13) =     2.14451 eV ==== 
     psi = 0.073*[#   2]+0.073*[#   3]+0.073*[#   5]+0.073*[#   8]+0.073*[#   9]+
          +0.073*[#  11]+0.073*[#  14]+0.073*[#  15]+0.073*[#  17]+0.073*[#  20]+
          +0.073*[#  21]+0.073*[#  23]+0.012*[#   1]+0.012*[#   4]+0.012*[#   7]+
          +0.012*[#  10]+0.012*[#  13]+0.012*[#  16]+0.012*[#  19]+0.012*[#  22]+
          +0.005*[#  26]+0.005*[#  27]+0.005*[#  28]+0.005*[#  30]+0.005*[#  31]+
          +0.005*[#  32]+
    |psi|^2 = 0.999
==== e(  14) =     2.14451 eV ==== 
     psi = 0.073*[#   2]+0.073*[#   3]+0.073*[#   5]+0.073*[#   8]+0.073*[#   9]+
          +0.073*[#  11]+0.073*[#  14]+0.073*[#  15]+0.073*[#  17]+0.073*[#  20]+
          +0.073*[#  21]+0.073*[#  23]+0.012*[#   1]+0.012*[#   4]+0.012*[#   7]+
          +0.012*[#  10]+0.012*[#  13]+0.012*[#  16]+0.012*[#  19]+0.012*[#  22]+
          +0.005*[#  26]+0.005*[#  27]+0.005*[#  28]+0.005*[#  30]+0.005*[#  31]+
          +0.005*[#  32]+
    |psi|^2 = 0.999
==== e(  15) =     2.35309 eV ==== 
     psi = 0.069*[#   2]+0.069*[#   3]+0.069*[#   5]+0.069*[#   8]+0.069*[#   9]+
          +0.069*[#  11]+0.069*[#  14]+0.069*[#  15]+0.069*[#  17]+0.069*[#  20]+
          +0.069*[#  21]+0.069*[#  23]+0.026*[#  25]+0.025*[#  30]+0.025*[#  31]+
          +0.025*[#  32]+0.018*[#   6]+0.018*[#  12]+0.018*[#  18]+0.018*[#  24]+
    |psi|^2 = 0.998
==== e(  16) =     2.35312 eV ==== 
     psi = 0.069*[#   2]+0.069*[#   3]+0.069*[#   5]+0.069*[#   8]+0.069*[#   9]+
          +0.069*[#  11]+0.069*[#  14]+0.069*[#  15]+0.069*[#  17]+0.069*[#  20]+
          +0.069*[#  21]+0.069*[#  23]+0.026*[#  29]+0.025*[#  26]+0.025*[#  27]+
          +0.025*[#  28]+0.018*[#   6]+0.018*[#  12]+0.018*[#  18]+0.018*[#  24]+
    |psi|^2 = 0.998
==== e(  17) =     2.39377 eV ==== 
     psi = 0.109*[#   1]+0.109*[#   4]+0.109*[#   7]+0.109*[#  10]+0.109*[#  13]+
          +0.109*[#  16]+0.109*[#  19]+0.109*[#  22]+0.011*[#   2]+0.011*[#   3]+
          +0.011*[#   5]+0.011*[#   8]+0.011*[#   9]+0.011*[#  11]+0.011*[#  14]+
          +0.011*[#  15]+0.011*[#  17]+0.011*[#  20]+0.011*[#  21]+0.011*[#  23]+
          +0.001*[#   6]+0.001*[#  12]+0.001*[#  18]+0.001*[#  24]+
    |psi|^2 = 1.000
==== e(  18) =     2.39377 eV ==== 
     psi = 0.109*[#   1]+0.109*[#   4]+0.109*[#   7]+0.109*[#  10]+0.109*[#  13]+
          +0.109*[#  16]+0.109*[#  19]+0.109*[#  22]+0.011*[#   2]+0.011*[#   3]+
          +0.011*[#   5]+0.011*[#   8]+0.011*[#   9]+0.011*[#  11]+0.011*[#  14]+
          +0.011*[#  15]+0.011*[#  17]+0.011*[#  20]+0.011*[#  21]+0.011*[#  23]+
          +0.001*[#   6]+0.001*[#  12]+0.001*[#  18]+0.001*[#  24]+
    |psi|^2 = 1.000
==== e(  19) =     2.58247 eV ==== 
     psi = 0.125*[#   1]+0.125*[#   4]+0.125*[#   7]+0.125*[#  10]+0.125*[#  13]+
          +0.125*[#  16]+0.125*[#  19]+0.125*[#  22]+
    |psi|^2 = 1.000
==== e(  20) =     2.58247 eV ==== 
     psi = 0.125*[#   1]+0.125*[#   4]+0.125*[#   7]+0.125*[#  10]+0.125*[#  13]+
          +0.125*[#  16]+0.125*[#  19]+0.125*[#  22]+
    |psi|^2 = 1.000
==== e(  21) =     2.91183 eV ==== 
     psi = 0.082*[#   2]+0.082*[#   3]+0.082*[#   5]+0.082*[#   8]+0.082*[#   9]+
          +0.082*[#  11]+0.082*[#  14]+0.082*[#  15]+0.082*[#  17]+0.082*[#  20]+
          +0.082*[#  21]+0.082*[#  23]+0.001*[#  26]+0.001*[#  27]+0.001*[#  28]+
          +0.001*[#  30]+0.001*[#  31]+0.001*[#  32]+
    |psi|^2 = 1.000
==== e(  22) =     2.91183 eV ==== 
     psi = 0.082*[#   2]+0.082*[#   3]+0.082*[#   5]+0.082*[#   8]+0.082*[#   9]+
          +0.082*[#  11]+0.082*[#  14]+0.082*[#  15]+0.082*[#  17]+0.082*[#  20]+
          +0.082*[#  21]+0.082*[#  23]+0.001*[#  26]+0.001*[#  27]+0.001*[#  28]+
          +0.001*[#  30]+0.001*[#  31]+0.001*[#  32]+
    |psi|^2 = 1.000
==== e(  23) =     4.33977 eV ==== 
     psi = 0.120*[#  26]+0.120*[#  27]+0.120*[#  28]+0.070*[#   6]+0.070*[#  12]+
          +0.070*[#  18]+0.070*[#  24]+0.031*[#   1]+0.031*[#   4]+0.031*[#   7]+
          +0.031*[#  10]+0.031*[#  13]+0.031*[#  16]+0.031*[#  19]+0.031*[#  22]+
          +0.013*[#  29]+0.007*[#   2]+0.007*[#   3]+0.007*[#   5]+0.007*[#   8]+
          +0.007*[#   9]+0.007*[#  11]+0.007*[#  14]+0.007*[#  15]+0.007*[#  17]+
          +0.007*[#  20]+0.007*[#  21]+0.007*[#  23]+
    |psi|^2 = 0.984
==== e(  24) =     4.33977 eV ==== 
     psi = 0.120*[#  30]+0.120*[#  31]+0.120*[#  32]+0.070*[#   6]+0.070*[#  12]+
          +0.070*[#  18]+0.070*[#  24]+0.031*[#   1]+0.031*[#   4]+0.031*[#   7]+
          +0.031*[#  10]+0.031*[#  13]+0.031*[#  16]+0.031*[#  19]+0.031*[#  22]+
          +0.013*[#  25]+0.007*[#   2]+0.007*[#   3]+0.007*[#   5]+0.007*[#   8]+
          +0.007*[#   9]+0.007*[#  11]+0.007*[#  14]+0.007*[#  15]+0.007*[#  17]+
          +0.007*[#  20]+0.007*[#  21]+0.007*[#  23]+
    |psi|^2 = 0.984
==== e(  25) =     5.60476 eV ==== 
     psi = 0.117*[#  26]+0.117*[#  27]+0.117*[#  28]+0.117*[#  30]+0.117*[#  31]+
          +0.117*[#  32]+0.024*[#   1]+0.024*[#   4]+0.024*[#   7]+0.024*[#  10]+
          +0.024*[#  13]+0.024*[#  16]+0.024*[#  19]+0.024*[#  22]+0.008*[#   2]+
          +0.008*[#   3]+0.008*[#   5]+0.008*[#   8]+0.008*[#   9]+0.008*[#  11]+
          +0.008*[#  14]+0.008*[#  15]+0.008*[#  17]+0.008*[#  20]+0.008*[#  21]+
          +0.008*[#  23]+
    |psi|^2 = 0.985
==== e(  26) =     5.60476 eV ==== 
     psi = 0.117*[#  26]+0.117*[#  27]+0.117*[#  28]+0.117*[#  30]+0.117*[#  31]+
          +0.117*[#  32]+0.024*[#   1]+0.024*[#   4]+0.024*[#   7]+0.024*[#  10]+
          +0.024*[#  13]+0.024*[#  16]+0.024*[#  19]+0.024*[#  22]+0.008*[#   2]+
          +0.008*[#   3]+0.008*[#   5]+0.008*[#   8]+0.008*[#   9]+0.008*[#  11]+
          +0.008*[#  14]+0.008*[#  15]+0.008*[#  17]+0.008*[#  20]+0.008*[#  21]+
          +0.008*[#  23]+
    |psi|^2 = 0.985
==== e(  27) =     6.56431 eV ==== 
     psi = 0.077*[#  26]+0.077*[#  27]+0.077*[#  28]+0.077*[#  30]+0.077*[#  31]+
          +0.077*[#  32]+0.031*[#   2]+0.031*[#   3]+0.031*[#   5]+0.031*[#   8]+
          +0.031*[#   9]+0.031*[#  11]+0.031*[#  14]+0.031*[#  15]+0.031*[#  17]+
          +0.031*[#  20]+0.031*[#  21]+0.031*[#  23]+0.026*[#   6]+0.026*[#  12]+
          +0.026*[#  18]+0.026*[#  24]+0.007*[#   1]+0.007*[#   4]+0.007*[#   7]+
          +0.007*[#  10]+0.007*[#  13]+0.007*[#  16]+0.007*[#  19]+0.007*[#  22]+
    |psi|^2 = 0.996
==== e(  28) =     6.56431 eV ==== 
     psi = 0.077*[#  26]+0.077*[#  27]+0.077*[#  28]+0.077*[#  30]+0.077*[#  31]+
          +0.077*[#  32]+0.031*[#   2]+0.031*[#   3]+0.031*[#   5]+0.031*[#   8]+
          +0.031*[#   9]+0.031*[#  11]+0.031*[#  14]+0.031*[#  15]+0.031*[#  17]+
          +0.031*[#  20]+0.031*[#  21]+0.031*[#  23]+0.026*[#   6]+0.026*[#  12]+
          +0.026*[#  18]+0.026*[#  24]+0.007*[#   1]+0.007*[#   4]+0.007*[#   7]+
          +0.007*[#  10]+0.007*[#  13]+0.007*[#  16]+0.007*[#  19]+0.007*[#  22]+
    |psi|^2 = 0.996
==== e(  29) =    10.24677 eV ==== 
     psi = 0.111*[#   6]+0.111*[#  12]+0.111*[#  18]+0.111*[#  24]+0.105*[#  25]+
          +0.087*[#  30]+0.087*[#  31]+0.087*[#  32]+0.013*[#   2]+0.013*[#   3]+
          +0.013*[#   5]+0.013*[#   8]+0.013*[#   9]+0.013*[#  11]+0.013*[#  14]+
          +0.013*[#  15]+0.013*[#  17]+0.013*[#  20]+0.013*[#  21]+0.013*[#  23]+
    |psi|^2 = 0.960
==== e(  30) =    10.24705 eV ==== 
     psi = 0.111*[#   6]+0.111*[#  12]+0.111*[#  18]+0.111*[#  24]+0.105*[#  29]+
          +0.087*[#  26]+0.087*[#  27]+0.087*[#  28]+0.013*[#   2]+0.013*[#   3]+
          +0.013*[#   5]+0.013*[#   8]+0.013*[#   9]+0.013*[#  11]+0.013*[#  14]+
          +0.013*[#  15]+0.013*[#  17]+0.013*[#  20]+0.013*[#  21]+0.013*[#  23]+
    |psi|^2 = 0.960
==== e(  31) =    12.83734 eV ==== 
     psi = 
    |psi|^2 = 0.006
==== e(  32) =    12.83736 eV ==== 
     psi = 
    |psi|^2 = 0.006

 k =   0.0000000000  0.2500000000  0.2500000000
==== e(   1) =   -11.71696 eV ==== 
     psi = 0.386*[#  25]+0.384*[#  29]+0.031*[#   6]+0.031*[#  12]+0.031*[#  18]+
          +0.031*[#  24]+0.009*[#   2]+0.009*[#   3]+0.009*[#   5]+0.009*[#   8]+
          +0.009*[#   9]+0.009*[#  11]+0.009*[#  14]+0.009*[#  15]+0.009*[#  17]+
          +0.009*[#  20]+0.009*[#  21]+0.009*[#  23]+
    |psi|^2 = 0.999
==== e(   2) =   -10.95220 eV ==== 
     psi = 0.451*[#  29]+0.449*[#  25]+0.012*[#   6]+0.012*[#  12]+0.012*[#  18]+
          +0.012*[#  24]+0.004*[#   2]+0.004*[#   3]+0.004*[#   5]+0.004*[#   8]+
          +0.004*[#   9]+0.004*[#  11]+0.004*[#  14]+0.004*[#  15]+0.004*[#  17]+
          +0.004*[#  20]+0.004*[#  21]+0.004*[#  23]+
    |psi|^2 = 0.998
==== e(   3) =    -0.78154 eV ==== 
     psi = 0.061*[#  26]+0.061*[#  27]+0.061*[#  28]+0.061*[#  30]+0.061*[#  31]+
          +0.061*[#  32]+0.049*[#   1]+0.049*[#   4]+0.049*[#   7]+0.049*[#  10]+
          +0.049*[#  13]+0.049*[#  16]+0.049*[#  19]+0.049*[#  22]+0.016*[#   2]+
          +0.016*[#   3]+0.016*[#   5]+0.016*[#   8]+0.016*[#   9]+0.016*[#  11]+
          +0.016*[#  14]+0.016*[#  15]+0.016*[#  17]+0.016*[#  20]+0.016*[#  21]+
          +0.016*[#  23]+0.011*[#   6]+0.011*[#  12]+0.011*[#  18]+0.011*[#  24]+
    |psi|^2 = 0.999
==== e(   4) =    -0.63903 eV ==== 
     psi = 0.057*[#   1]+0.057*[#   4]+0.057*[#   7]+0.057*[#  10]+0.057*[#  13]+
          +0.057*[#  16]+0.057*[#  19]+0.057*[#  22]+0.056*[#  26]+0.056*[#  27]+
          +0.056*[#  28]+0.056*[#  30]+0.056*[#  31]+0.056*[#  32]+0.015*[#   2]+
          +0.015*[#   3]+0.015*[#   5]+0.015*[#   8]+0.015*[#   9]+0.015*[#  11]+
          +0.015*[#  14]+0.015*[#  15]+0.015*[#  17]+0.015*[#  20]+0.015*[#  21]+
          +0.015*[#  23]+0.004*[#   6]+0.004*[#  12]+0.004*[#  18]+0.004*[#  24]+
    |psi|^2 = 0.998
==== e(   5) =    -0.34143 eV ==== 
     psi = 0.064*[#   1]+0.064*[#   4]+0.064*[#   7]+0.064*[#  10]+0.064*[#  13]+
          +0.064*[#  16]+0.064*[#  19]+0.064*[#  22]+0.051*[#  26]+0.051*[#  27]+
          +0.051*[#  28]+0.051*[#  30]+0.051*[#  31]+0.051*[#  32]+0.013*[#   2]+
          +0.013*[#   3]+0.013*[#   5]+0.013*[#   8]+0.013*[#   9]+0.013*[#  11]+
          +0.013*[#  14]+0.013*[#  15]+0.013*[#  17]+0.013*[#  20]+0.013*[#  21]+
          +0.013*[#  23]+0.006*[#  25]+0.006*[#  29]+0.003*[#   6]+0.003*[#  12]+
          +0.003*[#  18]+0.003*[#  24]+
    |psi|^2 = 0.998
==== e(   6) =     0.64297 eV ==== 
     psi = 0.048*[#   2]+0.048*[#   3]+0.048*[#   5]+0.048*[#   8]+0.048*[#   9]+
          +0.048*[#  11]+0.048*[#  14]+0.048*[#  15]+0.048*[#  17]+0.048*[#  20]+
          +0.048*[#  21]+0.048*[#  23]+0.036*[#  26]+0.036*[#  27]+0.036*[#  28]+
          +0.036*[#  30]+0.036*[#  31]+0.036*[#  32]+0.024*[#   1]+0.024*[#   4]+
          +0.024*[#   7]+0.024*[#  10]+0.024*[#  13]+0.024*[#  16]+0.024*[#  19]+
          +0.024*[#  22]+0.002*[#   6]+0.002*[#  12]+0.002*[#  18]+0.002*[#  24]+
          +0.001*[#  25]+0.001*[#  29]+
    |psi|^2 = 0.996
==== e(   7) =     0.64840 eV ==== 
     psi = 0.072*[#   2]+0.072*[#   3]+0.072*[#   5]+0.072*[#   8]+0.072*[#   9]+
          +0.072*[#  11]+0.072*[#  14]+0.072*[#  15]+0.072*[#  17]+0.072*[#  20]+
          +0.072*[#  21]+0.072*[#  23]+0.016*[#  26]+0.016*[#  27]+0.016*[#  28]+
          +0.016*[#  30]+0.016*[#  31]+0.016*[#  32]+0.004*[#   1]+0.004*[#   4]+
          +0.004*[#   7]+0.004*[#  10]+0.004*[#  13]+0.004*[#  16]+0.004*[#  19]+
          +0.004*[#  22]+
    |psi|^2 = 0.998
==== e(   8) =     0.87275 eV ==== 
     psi = 0.041*[#  26]+0.041*[#  27]+0.041*[#  28]+0.041*[#  30]+0.041*[#  31]+
          +0.041*[#  32]+0.038*[#   1]+0.038*[#   4]+0.038*[#   7]+0.038*[#  10]+
          +0.038*[#  13]+0.038*[#  16]+0.038*[#  19]+0.038*[#  22]+0.037*[#   2]+
          +0.037*[#   3]+0.037*[#   5]+0.037*[#   8]+0.037*[#   9]+0.037*[#  11]+
          +0.037*[#  14]+0.037*[#  15]+0.037*[#  17]+0.037*[#  20]+0.037*[#  21]+
          +0.037*[#  23]+0.004*[#  25]+0.004*[#  29]+
    |psi|^2 = 0.997
==== e(   9) =     1.01556 eV ==== 
     psi = 0.067*[#   2]+0.067*[#   3]+0.067*[#   5]+0.067*[#   8]+0.067*[#   9]+
          +0.067*[#  11]+0.067*[#  14]+0.067*[#  15]+0.067*[#  17]+0.067*[#  20]+
          +0.067*[#  21]+0.067*[#  23]+0.015*[#   1]+0.015*[#   4]+0.015*[#   7]+
          +0.015*[#  10]+0.015*[#  13]+0.015*[#  16]+0.015*[#  19]+0.015*[#  22]+
          +0.012*[#  26]+0.012*[#  27]+0.012*[#  28]+0.012*[#  30]+0.012*[#  31]+
          +0.012*[#  32]+
    |psi|^2 = 0.999
==== e(  10) =     1.41125 eV ==== 
     psi = 0.055*[#   1]+0.055*[#   4]+0.055*[#   7]+0.055*[#  10]+0.055*[#  13]+
          +0.055*[#  16]+0.055*[#  19]+0.055*[#  22]+0.043*[#   2]+0.043*[#   3]+
          +0.043*[#   5]+0.043*[#   8]+0.043*[#   9]+0.043*[#  11]+0.043*[#  14]+
          +0.043*[#  15]+0.043*[#  17]+0.043*[#  20]+0.043*[#  21]+0.043*[#  23]+
          +0.006*[#  26]+0.006*[#  27]+0.006*[#  28]+0.006*[#  30]+0.006*[#  31]+
          +0.006*[#  32]+0.001*[#   6]+0.001*[#  12]+0.001*[#  18]+0.001*[#  24]+
    |psi|^2 = 0.999
==== e(  11) =     1.69721 eV ==== 
     psi = 0.056*[#   2]+0.056*[#   3]+0.056*[#   5]+0.056*[#   8]+0.056*[#   9]+
          +0.056*[#  11]+0.056*[#  14]+0.056*[#  15]+0.056*[#  17]+0.056*[#  20]+
          +0.056*[#  21]+0.056*[#  23]+0.028*[#   1]+0.028*[#   4]+0.028*[#   7]+
          +0.028*[#  10]+0.028*[#  13]+0.028*[#  16]+0.028*[#  19]+0.028*[#  22]+
          +0.015*[#  26]+0.015*[#  27]+0.015*[#  28]+0.015*[#  30]+0.015*[#  31]+
          +0.015*[#  32]+0.004*[#   6]+0.004*[#  12]+0.004*[#  18]+0.004*[#  24]+
          +0.002*[#  25]+0.002*[#  29]+
    |psi|^2 = 0.999
==== e(  12) =     1.80387 eV ==== 
     psi = 0.060*[#   6]+0.060*[#  12]+0.060*[#  18]+0.060*[#  24]+0.053*[#   2]+
          +0.053*[#   3]+0.053*[#   5]+0.053*[#   8]+0.053*[#   9]+0.053*[#  11]+
          +0.053*[#  14]+0.053*[#  15]+0.053*[#  17]+0.053*[#  20]+0.053*[#  21]+
          +0.053*[#  23]+0.009*[#   1]+0.009*[#   4]+0.009*[#   7]+0.009*[#  10]+
          +0.009*[#  13]+0.009*[#  16]+0.009*[#  19]+0.009*[#  22]+0.009*[#  26]+
          +0.009*[#  27]+0.009*[#  28]+0.009*[#  30]+0.009*[#  31]+0.009*[#  32]+
    |psi|^2 = 0.998
==== e(  13) =     1.95970 eV ==== 
     psi = 0.096*[#   1]+0.096*[#   4]+0.096*[#   7]+0.096*[#  10]+0.096*[#  13]+
          +0.096*[#  16]+0.096*[#  19]+0.096*[#  22]+0.017*[#  26]+0.017*[#  27]+
          +0.017*[#  28]+0.017*[#  30]+0.017*[#  31]+0.017*[#  32]+0.011*[#   2]+
          +0.011*[#   3]+0.011*[#   5]+0.011*[#   8]+0.011*[#   9]+0.011*[#  11]+
          +0.011*[#  14]+0.011*[#  15]+0.011*[#  17]+0.011*[#  20]+0.011*[#  21]+
          +0.011*[#  23]+
    |psi|^2 = 1.000
==== e(  14) =     2.19973 eV ==== 
     psi = 0.047*[#   2]+0.047*[#   3]+0.047*[#   5]+0.047*[#   8]+0.047*[#   9]+
          +0.047*[#  11]+0.047*[#  14]+0.047*[#  15]+0.047*[#  17]+0.047*[#  20]+
          +0.047*[#  21]+0.047*[#  23]+0.043*[#   1]+0.043*[#   4]+0.043*[#   7]+
          +0.043*[#  10]+0.043*[#  13]+0.043*[#  16]+0.043*[#  19]+0.043*[#  22]+
          +0.009*[#  26]+0.009*[#  27]+0.009*[#  28]+0.009*[#  30]+0.009*[#  31]+
          +0.009*[#  32]+0.007*[#   6]+0.007*[#  12]+0.007*[#  18]+0.007*[#  24]+
          +0.003*[#  25]+0.003*[#  29]+
    |psi|^2 = 0.999
==== e(  15) =     2.21146 eV ==== 
     psi = 0.067*[#   2]+0.067*[#   3]+0.067*[#   5]+0.067*[#   8]+0.067*[#   9]+
          +0.067*[#  11]+0.067*[#  14]+0.067*[#  15]+0.067*[#  17]+0.067*[#  20]+
          +0.067*[#  21]+0.067*[#  23]+0.021*[#   1]+0.021*[#   4]+0.021*[#   7]+
          +0.021*[#  10]+0.021*[#  13]+0.021*[#  16]+0.021*[#  19]+0.021*[#  22]+
          +0.004*[#   6]+0.004*[#  12]+0.004*[#  18]+0.004*[#  24]+
    |psi|^2 = 0.999
==== e(  16) =     2.32246 eV ==== 
     psi = 0.113*[#   1]+0.113*[#   4]+0.113*[#   7]+0.113*[#  10]+0.113*[#  13]+
          +0.113*[#  16]+0.113*[#  19]+0.113*[#  22]+0.006*[#   2]+0.006*[#   3]+
          +0.006*[#   5]+0.006*[#   8]+0.006*[#   9]+0.006*[#  11]+0.006*[#  14]+
          +0.006*[#  15]+0.006*[#  17]+0.006*[#  20]+0.006*[#  21]+0.006*[#  23]+
          +0.004*[#  26]+0.004*[#  27]+0.004*[#  28]+0.004*[#  30]+0.004*[#  31]+
          +0.004*[#  32]+
    |psi|^2 = 0.999
==== e(  17) =     2.34181 eV ==== 
     psi = 0.078*[#   2]+0.078*[#   3]+0.078*[#   5]+0.078*[#   8]+0.078*[#   9]+
          +0.078*[#  11]+0.078*[#  14]+0.078*[#  15]+0.078*[#  17]+0.078*[#  20]+
          +0.078*[#  21]+0.078*[#  23]+0.004*[#  26]+0.004*[#  27]+0.004*[#  28]+
          +0.004*[#  30]+0.004*[#  31]+0.004*[#  32]+0.003*[#   1]+0.003*[#   4]+
          +0.003*[#   7]+0.003*[#  10]+0.003*[#  13]+0.003*[#  16]+0.003*[#  19]+
          +0.003*[#  22]+0.002*[#  25]+0.002*[#  29]+0.002*[#   6]+0.002*[#  12]+
          +0.002*[#  18]+0.002*[#  24]+
    |psi|^2 = 0.994
==== e(  18) =     2.52223 eV ==== 
     psi = 0.075*[#   1]+0.075*[#   4]+0.075*[#   7]+0.075*[#  10]+0.075*[#  13]+
          +0.075*[#  16]+0.075*[#  19]+0.075*[#  22]+0.025*[#   2]+0.025*[#   3]+
          +0.025*[#   5]+0.025*[#   8]+0.025*[#   9]+0.025*[#  11]+0.025*[#  14]+
          +0.025*[#  15]+0.025*[#  17]+0.025*[#  20]+0.025*[#  21]+0.025*[#  23]+
          +0.013*[#   6]+0.013*[#  12]+0.013*[#  18]+0.013*[#  24]+0.005*[#  25]+
          +0.005*[#  29]+0.005*[#  26]+0.005*[#  27]+0.005*[#  28]+0.005*[#  30]+
          +0.005*[#  31]+0.005*[#  32]+
    |psi|^2 = 0.999
==== e(  19) =     2.65120 eV ==== 
     psi = 0.073*[#   1]+0.073*[#   4]+0.073*[#   7]+0.073*[#  10]+0.073*[#  13]+
          +0.073*[#  16]+0.073*[#  19]+0.073*[#  22]+0.034*[#   2]+0.034*[#   3]+
          +0.034*[#   5]+0.034*[#   8]+0.034*[#   9]+0.034*[#  11]+0.034*[#  14]+
          +0.034*[#  15]+0.034*[#  17]+0.034*[#  20]+0.034*[#  21]+0.034*[#  23]+
          +0.001*[#   6]+0.001*[#  12]+0.001*[#  18]+0.001*[#  24]+
    |psi|^2 = 0.999
==== e(  20) =     2.67720 eV ==== 
     psi = 0.060*[#   2]+0.060*[#   3]+0.060*[#   5]+0.060*[#   8]+0.060*[#   9]+
          +0.060*[#  11]+0.060*[#  14]+0.060*[#  15]+0.060*[#  17]+0.060*[#  20]+
          +0.060*[#  21]+0.060*[#  23]+0.033*[#   1]+0.033*[#   4]+0.033*[#   7]+
          +0.033*[#  10]+0.033*[#  13]+0.033*[#  16]+0.033*[#  19]+0.033*[#  22]+
          +0.002*[#  26]+0.002*[#  27]+0.002*[#  28]+0.002*[#  30]+0.002*[#  31]+
          +0.002*[#  32]+
    |psi|^2 = 1.000
==== e(  21) =     2.76094 eV ==== 
     psi = 0.070*[#   2]+0.070*[#   3]+0.070*[#   5]+0.070*[#   8]+0.070*[#   9]+
          +0.070*[#  11]+0.070*[#  14]+0.070*[#  15]+0.070*[#  17]+0.070*[#  20]+
          +0.070*[#  21]+0.070*[#  23]+0.019*[#   1]+0.019*[#   4]+0.019*[#   7]+
          +0.019*[#  10]+0.019*[#  13]+0.019*[#  16]+0.019*[#  19]+0.019*[#  22]+
          +0.001*[#  26]+0.001*[#  27]+0.001*[#  28]+0.001*[#  30]+0.001*[#  31]+
          +0.001*[#  32]+
    |psi|^2 = 1.000
==== e(  22) =     2.84865 eV ==== 
     psi = 0.087*[#   1]+0.087*[#   4]+0.087*[#   7]+0.087*[#  10]+0.087*[#  13]+
          +0.087*[#  16]+0.087*[#  19]+0.087*[#  22]+0.023*[#   2]+0.023*[#   3]+
          +0.023*[#   5]+0.023*[#   8]+0.023*[#   9]+0.023*[#  11]+0.023*[#  14]+
          +0.023*[#  15]+0.023*[#  17]+0.023*[#  20]+0.023*[#  21]+0.023*[#  23]+
          +0.004*[#  25]+0.004*[#  29]+0.004*[#  26]+0.004*[#  27]+0.004*[#  28]+
          +0.004*[#  30]+0.004*[#  31]+0.004*[#  32]+
    |psi|^2 = 0.999
==== e(  23) =     4.27350 eV ==== 
     psi = 0.071*[#  26]+0.071*[#  27]+0.071*[#  28]+0.071*[#  30]+0.071*[#  31]+
          +0.071*[#  32]+0.033*[#   6]+0.033*[#  12]+0.033*[#  18]+0.033*[#  24]+
          +0.025*[#   2]+0.025*[#   3]+0.025*[#   5]+0.025*[#   8]+0.025*[#   9]+
          +0.025*[#  11]+0.025*[#  14]+0.025*[#  15]+0.025*[#  17]+0.025*[#  20]+
          +0.025*[#  21]+0.025*[#  23]+0.017*[#  25]+0.017*[#  29]+0.013*[#   1]+
          +0.013*[#   4]+0.013*[#   7]+0.013*[#  10]+0.013*[#  13]+0.013*[#  16]+
          +0.013*[#  19]+0.013*[#  22]+
    |psi|^2 = 0.987
==== e(  24) =     5.01300 eV ==== 
     psi = 0.126*[#  26]+0.126*[#  27]+0.126*[#  28]+0.126*[#  30]+0.126*[#  31]+
          +0.126*[#  32]+0.017*[#   1]+0.017*[#   4]+0.017*[#   7]+0.017*[#  10]+
          +0.017*[#  13]+0.017*[#  16]+0.017*[#  19]+0.017*[#  22]+0.008*[#   2]+
          +0.008*[#   3]+0.008*[#   5]+0.008*[#   8]+0.008*[#   9]+0.008*[#  11]+
          +0.008*[#  14]+0.008*[#  15]+0.008*[#  17]+0.008*[#  20]+0.008*[#  21]+
          +0.008*[#  23]+
    |psi|^2 = 0.988
==== e(  25) =     5.24903 eV ==== 
     psi = 0.120*[#  26]+0.120*[#  27]+0.120*[#  28]+0.120*[#  30]+0.120*[#  31]+
          +0.120*[#  32]+0.017*[#   1]+0.017*[#   4]+0.017*[#   7]+0.017*[#  10]+
          +0.017*[#  13]+0.017*[#  16]+0.017*[#  19]+0.017*[#  22]+0.011*[#   2]+
          +0.011*[#   3]+0.011*[#   5]+0.011*[#   8]+0.011*[#   9]+0.011*[#  11]+
          +0.011*[#  14]+0.011*[#  15]+0.011*[#  17]+0.011*[#  20]+0.011*[#  21]+
          +0.011*[#  23]+
    |psi|^2 = 0.985
==== e(  26) =     5.58142 eV ==== 
     psi = 0.068*[#   6]+0.068*[#  12]+0.068*[#  18]+0.068*[#  24]+0.051*[#  26]+
          +0.051*[#  27]+0.051*[#  28]+0.051*[#  30]+0.051*[#  31]+0.051*[#  32]+
          +0.021*[#   2]+0.021*[#   3]+0.021*[#   5]+0.021*[#   8]+0.021*[#   9]+
          +0.021*[#  11]+0.021*[#  14]+0.021*[#  15]+0.021*[#  17]+0.021*[#  20]+
          +0.021*[#  21]+0.021*[#  23]+0.018*[#   1]+0.018*[#   4]+0.018*[#   7]+
          +0.018*[#  10]+0.018*[#  13]+0.018*[#  16]+0.018*[#  19]+0.018*[#  22]+
    |psi|^2 = 0.977
==== e(  27) =     6.44195 eV ==== 
     psi = 0.073*[#  26]+0.073*[#  27]+0.073*[#  28]+0.073*[#  30]+0.073*[#  31]+
          +0.073*[#  32]+0.035*[#   6]+0.035*[#  12]+0.035*[#  18]+0.035*[#  24]+
          +0.025*[#   2]+0.025*[#   3]+0.025*[#   5]+0.025*[#   8]+0.025*[#   9]+
          +0.025*[#  11]+0.025*[#  14]+0.025*[#  15]+0.025*[#  17]+0.025*[#  20]+
          +0.025*[#  21]+0.025*[#  23]+0.013*[#   1]+0.013*[#   4]+0.013*[#   7]+
          +0.013*[#  10]+0.013*[#  13]+0.013*[#  16]+0.013*[#  19]+0.013*[#  22]+
    |psi|^2 = 0.985
==== e(  28) =     6.72546 eV ==== 
     psi = 0.080*[#  26]+0.080*[#  27]+0.080*[#  28]+0.080*[#  30]+0.080*[#  31]+
          +0.080*[#  32]+0.026*[#   2]+0.026*[#   3]+0.026*[#   5]+0.026*[#   8]+
          +0.026*[#   9]+0.026*[#  11]+0.026*[#  14]+0.026*[#  15]+0.026*[#  17]+
          +0.026*[#  20]+0.026*[#  21]+0.026*[#  23]+0.025*[#   6]+0.025*[#  12]+
          +0.025*[#  18]+0.025*[#  24]+0.012*[#   1]+0.012*[#   4]+0.012*[#   7]+
          +0.012*[#  10]+0.012*[#  13]+0.012*[#  16]+0.012*[#  19]+0.012*[#  22]+
          +0.001*[#  25]+0.001*[#  29]+
    |psi|^2 = 0.993
==== e(  29) =     9.29603 eV ==== 
     psi = 0.108*[#   6]+0.108*[#  12]+0.108*[#  18]+0.108*[#  24]+0.081*[#  25]+
          +0.081*[#  29]+0.032*[#  26]+0.032*[#  27]+0.032*[#  28]+0.032*[#  30]+
          +0.032*[#  31]+0.032*[#  32]+0.016*[#   2]+0.016*[#   3]+0.016*[#   5]+
          +0.016*[#   8]+0.016*[#   9]+0.016*[#  11]+0.016*[#  14]+0.016*[#  15]+
          +0.016*[#  17]+0.016*[#  20]+0.016*[#  21]+0.016*[#  23]+
    |psi|^2 = 0.976
==== e(  30) =    11.01961 eV ==== 
     psi = 0.083*[#   6]+0.083*[#  12]+0.083*[#  18]+0.083*[#  24]+0.014*[#  26]+
          +0.014*[#  27]+0.014*[#  28]+0.014*[#  30]+0.014*[#  31]+0.014*[#  32]+
          +0.013*[#  25]+0.013*[#  29]+0.004*[#   2]+0.004*[#   3]+0.004*[#   5]+
          +0.004*[#   8]+0.004*[#   9]+0.004*[#  11]+0.004*[#  14]+0.004*[#  15]+
          +0.004*[#  17]+0.004*[#  20]+0.004*[#  21]+0.004*[#  23]+
    |psi|^2 = 0.485
==== e(  31) =    11.48363 eV ==== 
     psi = 0.085*[#   6]+0.085*[#  12]+0.085*[#  18]+0.085*[#  24]+0.035*[#  26]+
          +0.035*[#  27]+0.035*[#  28]+0.035*[#  30]+0.035*[#  31]+0.035*[#  32]+
          +0.007*[#   2]+0.007*[#   3]+0.007*[#   5]+0.007*[#   8]+0.007*[#   9]+
          +0.007*[#  11]+0.007*[#  14]+0.007*[#  15]+0.007*[#  17]+0.007*[#  20]+
          +0.007*[#  21]+0.007*[#  23]+
    |psi|^2 = 0.635
==== e(  32) =    13.98114 eV ==== 
     psi = 0.049*[#   6]+0.049*[#  12]+0.049*[#  18]+0.049*[#  24]+0.005*[#  26]+
          +0.005*[#  27]+0.005*[#  28]+0.005*[#  30]+0.005*[#  31]+0.005*[#  32]+
    |psi|^2 = 0.232

 k =   0.0000000000  0.2500000000 -0.5000000000
==== e(   1) =   -11.38592 eV ==== 
     psi = 0.828*[#  25]+0.022*[#   6]+0.022*[#  12]+0.022*[#  18]+0.022*[#  24]+
          +0.007*[#   2]+0.007*[#   3]+0.007*[#   5]+0.007*[#   8]+0.007*[#   9]+
          +0.007*[#  11]+0.007*[#  14]+0.007*[#  15]+0.007*[#  17]+0.007*[#  20]+
          +0.007*[#  21]+0.007*[#  23]+
    |psi|^2 = 0.998
==== e(   2) =   -11.38425 eV ==== 
     psi = 0.828*[#  29]+0.022*[#   6]+0.022*[#  12]+0.022*[#  18]+0.022*[#  24]+
          +0.007*[#   2]+0.007*[#   3]+0.007*[#   5]+0.007*[#   8]+0.007*[#   9]+
          +0.007*[#  11]+0.007*[#  14]+0.007*[#  15]+0.007*[#  17]+0.007*[#  20]+
          +0.007*[#  21]+0.007*[#  23]+
    |psi|^2 = 0.998
==== e(   3) =    -0.01616 eV ==== 
     psi = 0.073*[#  26]+0.073*[#  27]+0.073*[#  28]+0.054*[#  30]+0.054*[#  31]+
          +0.054*[#  32]+0.040*[#   1]+0.040*[#   4]+0.040*[#   7]+0.040*[#  10]+
          +0.040*[#  13]+0.040*[#  16]+0.040*[#  19]+0.040*[#  22]+0.021*[#   2]+
          +0.021*[#   3]+0.021*[#   5]+0.021*[#   8]+0.021*[#   9]+0.021*[#  11]+
          +0.021*[#  14]+0.021*[#  15]+0.021*[#  17]+0.021*[#  20]+0.021*[#  21]+
          +0.021*[#  23]+0.009*[#   6]+0.009*[#  12]+0.009*[#  18]+0.009*[#  24]+
          +0.003*[#  25]+
    |psi|^2 = 0.997
==== e(   4) =    -0.01614 eV ==== 
     psi = 0.073*[#  30]+0.073*[#  31]+0.073*[#  32]+0.054*[#  26]+0.054*[#  27]+
          +0.054*[#  28]+0.040*[#   1]+0.040*[#   4]+0.040*[#   7]+0.040*[#  10]+
          +0.040*[#  13]+0.040*[#  16]+0.040*[#  19]+0.040*[#  22]+0.021*[#   2]+
          +0.021*[#   3]+0.021*[#   5]+0.021*[#   8]+0.021*[#   9]+0.021*[#  11]+
          +0.021*[#  14]+0.021*[#  15]+0.021*[#  17]+0.021*[#  20]+0.021*[#  21]+
          +0.021*[#  23]+0.009*[#   6]+0.009*[#  12]+0.009*[#  18]+0.009*[#  24]+
          +0.003*[#  29]+
    |psi|^2 = 0.997
==== e(   5) =     0.12820 eV ==== 
     psi = 0.102*[#  26]+0.102*[#  27]+0.102*[#  28]+0.056*[#   1]+0.056*[#   4]+
          +0.056*[#   7]+0.056*[#  10]+0.056*[#  13]+0.056*[#  16]+0.056*[#  19]+
          +0.056*[#  22]+0.019*[#   2]+0.019*[#   3]+0.019*[#   5]+0.019*[#   8]+
          +0.019*[#   9]+0.019*[#  11]+0.019*[#  14]+0.019*[#  15]+0.019*[#  17]+
          +0.019*[#  20]+0.019*[#  21]+0.019*[#  23]+0.002*[#  29]+0.001*[#   6]+
          +0.001*[#  12]+0.001*[#  18]+0.001*[#  24]+
    |psi|^2 = 0.998
==== e(   6) =     0.12825 eV ==== 
     psi = 0.102*[#  30]+0.102*[#  31]+0.102*[#  32]+0.056*[#   1]+0.056*[#   4]+
          +0.056*[#   7]+0.056*[#  10]+0.056*[#  13]+0.056*[#  16]+0.056*[#  19]+
          +0.056*[#  22]+0.019*[#   2]+0.019*[#   3]+0.019*[#   5]+0.019*[#   8]+
          +0.019*[#   9]+0.019*[#  11]+0.019*[#  14]+0.019*[#  15]+0.019*[#  17]+
          +0.019*[#  20]+0.019*[#  21]+0.019*[#  23]+0.002*[#  25]+0.001*[#   6]+
          +0.001*[#  12]+0.001*[#  18]+0.001*[#  24]+
    |psi|^2 = 0.998
==== e(   7) =     0.50916 eV ==== 
     psi = 0.057*[#  30]+0.057*[#  31]+0.057*[#  32]+0.044*[#   2]+0.044*[#   3]+
          +0.044*[#   5]+0.044*[#   8]+0.044*[#   9]+0.044*[#  11]+0.044*[#  14]+
          +0.044*[#  15]+0.044*[#  17]+0.044*[#  20]+0.044*[#  21]+0.044*[#  23]+
          +0.039*[#  26]+0.039*[#  27]+0.039*[#  28]+0.021*[#   1]+0.021*[#   4]+
          +0.021*[#   7]+0.021*[#  10]+0.021*[#  13]+0.021*[#  16]+0.021*[#  19]+
          +0.021*[#  22]+0.009*[#  25]+
    |psi|^2 = 0.997
==== e(   8) =     0.50917 eV ==== 
     psi = 0.057*[#  26]+0.057*[#  27]+0.057*[#  28]+0.044*[#   2]+0.044*[#   3]+
          +0.044*[#   5]+0.044*[#   8]+0.044*[#   9]+0.044*[#  11]+0.044*[#  14]+
          +0.044*[#  15]+0.044*[#  17]+0.044*[#  20]+0.044*[#  21]+0.044*[#  23]+
          +0.039*[#  30]+0.039*[#  31]+0.039*[#  32]+0.021*[#   1]+0.021*[#   4]+
          +0.021*[#   7]+0.021*[#  10]+0.021*[#  13]+0.021*[#  16]+0.021*[#  19]+
          +0.021*[#  22]+0.009*[#  29]+
    |psi|^2 = 0.997
==== e(   9) =     1.41932 eV ==== 
     psi = 0.063*[#   2]+0.063*[#   3]+0.063*[#   5]+0.063*[#   8]+0.063*[#   9]+
          +0.063*[#  11]+0.063*[#  14]+0.063*[#  15]+0.063*[#  17]+0.063*[#  20]+
          +0.063*[#  21]+0.063*[#  23]+0.026*[#   1]+0.026*[#   4]+0.026*[#   7]+
          +0.026*[#  10]+0.026*[#  13]+0.026*[#  16]+0.026*[#  19]+0.026*[#  22]+
          +0.006*[#   6]+0.006*[#  12]+0.006*[#  18]+0.006*[#  24]+0.002*[#  30]+
          +0.002*[#  31]+0.002*[#  32]+
    |psi|^2 = 0.997
==== e(  10) =     1.41933 eV ==== 
     psi = 0.063*[#   2]+0.063*[#   3]+0.063*[#   5]+0.063*[#   8]+0.063*[#   9]+
          +0.063*[#  11]+0.063*[#  14]+0.063*[#  15]+0.063*[#  17]+0.063*[#  20]+
          +0.063*[#  21]+0.063*[#  23]+0.026*[#   1]+0.026*[#   4]+0.026*[#   7]+
          +0.026*[#  10]+0.026*[#  13]+0.026*[#  16]+0.026*[#  19]+0.026*[#  22]+
          +0.006*[#   6]+0.006*[#  12]+0.006*[#  18]+0.006*[#  24]+0.002*[#  26]+
          +0.002*[#  27]+0.002*[#  28]+
    |psi|^2 = 0.997
==== e(  11) =     1.53572 eV ==== 
     psi = 0.056*[#   2]+0.056*[#   3]+0.056*[#   5]+0.056*[#   8]+0.056*[#   9]+
          +0.056*[#  11]+0.056*[#  14]+0.056*[#  15]+0.056*[#  17]+0.056*[#  20]+
          +0.056*[#  21]+0.056*[#  23]+0.033*[#   1]+0.033*[#   4]+0.033*[#   7]+
          +0.033*[#  10]+0.033*[#  13]+0.033*[#  16]+0.033*[#  19]+0.033*[#  22]+
          +0.012*[#   6]+0.012*[#  12]+0.012*[#  18]+0.012*[#  24]+0.003*[#  30]+
          +0.003*[#  31]+0.003*[#  32]+
    |psi|^2 = 0.998
==== e(  12) =     1.53572 eV ==== 
     psi = 0.056*[#   2]+0.056*[#   3]+0.056*[#   5]+0.056*[#   8]+0.056*[#   9]+
          +0.056*[#  11]+0.056*[#  14]+0.056*[#  15]+0.056*[#  17]+0.056*[#  20]+
          +0.056*[#  21]+0.056*[#  23]+0.033*[#   1]+0.033*[#   4]+0.033*[#   7]+
          +0.033*[#  10]+0.033*[#  13]+0.033*[#  16]+0.033*[#  19]+0.033*[#  22]+
          +0.012*[#   6]+0.012*[#  12]+0.012*[#  18]+0.012*[#  24]+0.003*[#  26]+
          +0.003*[#  27]+0.003*[#  28]+
    |psi|^2 = 0.998
==== e(  13) =     1.88529 eV ==== 
     psi = 0.060*[#   2]+0.060*[#   3]+0.060*[#   5]+0.060*[#   8]+0.060*[#   9]+
          +0.060*[#  11]+0.060*[#  14]+0.060*[#  15]+0.060*[#  17]+0.060*[#  20]+
          +0.060*[#  21]+0.060*[#  23]+0.029*[#   1]+0.029*[#   4]+0.029*[#   7]+
          +0.029*[#  10]+0.029*[#  13]+0.029*[#  16]+0.029*[#  19]+0.029*[#  22]+
          +0.006*[#   6]+0.006*[#  12]+0.006*[#  18]+0.006*[#  24]+0.006*[#  26]+
          +0.006*[#  27]+0.006*[#  28]+
    |psi|^2 = 0.999
==== e(  14) =     1.88529 eV ==== 
     psi = 0.060*[#   2]+0.060*[#   3]+0.060*[#   5]+0.060*[#   8]+0.060*[#   9]+
          +0.060*[#  11]+0.060*[#  14]+0.060*[#  15]+0.060*[#  17]+0.060*[#  20]+
          +0.060*[#  21]+0.060*[#  23]+0.029*[#   1]+0.029*[#   4]+0.029*[#   7]+
          +0.029*[#  10]+0.029*[#  13]+0.029*[#  16]+0.029*[#  19]+0.029*[#  22]+
          +0.006*[#   6]+0.006*[#  12]+0.006*[#  18]+0.006*[#  24]+0.006*[#  30]+
          +0.006*[#  31]+0.006*[#  32]+
    |psi|^2 = 0.999
==== e(  15) =     2.02305 eV ==== 
     psi = 0.066*[#   1]+0.066*[#   4]+0.066*[#   7]+0.066*[#  10]+0.066*[#  13]+
          +0.066*[#  16]+0.066*[#  19]+0.066*[#  22]+0.033*[#   2]+0.033*[#   3]+
          +0.033*[#   5]+0.033*[#   8]+0.033*[#   9]+0.033*[#  11]+0.033*[#  14]+
          +0.033*[#  15]+0.033*[#  17]+0.033*[#  20]+0.033*[#  21]+0.033*[#  23]+
          +0.016*[#  30]+0.016*[#  31]+0.016*[#  32]+0.007*[#  25]+0.003*[#   6]+
          +0.003*[#  12]+0.003*[#  18]+0.003*[#  24]+
    |psi|^2 = 0.999
==== e(  16) =     2.02306 eV ==== 
     psi = 0.066*[#   1]+0.066*[#   4]+0.066*[#   7]+0.066*[#  10]+0.066*[#  13]+
          +0.066*[#  16]+0.066*[#  19]+0.066*[#  22]+0.033*[#   2]+0.033*[#   3]+
          +0.033*[#   5]+0.033*[#   8]+0.033*[#   9]+0.033*[#  11]+0.033*[#  14]+
          +0.033*[#  15]+0.033*[#  17]+0.033*[#  20]+0.033*[#  21]+0.033*[#  23]+
          +0.016*[#  26]+0.016*[#  27]+0.016*[#  28]+0.007*[#  29]+0.003*[#   6]+
          +0.003*[#  12]+0.003*[#  18]+0.003*[#  24]+
    |psi|^2 = 0.999
==== e(  17) =     2.43317 eV ==== 
     psi = 0.103*[#   1]+0.103*[#   4]+0.103*[#   7]+0.103*[#  10]+0.103*[#  13]+
          +0.103*[#  16]+0.103*[#  19]+0.103*[#  22]+0.012*[#   2]+0.012*[#   3]+
          +0.012*[#   5]+0.012*[#   8]+0.012*[#   9]+0.012*[#  11]+0.012*[#  14]+
          +0.012*[#  15]+0.012*[#  17]+0.012*[#  20]+0.012*[#  21]+0.012*[#  23]+
          +0.006*[#   6]+0.006*[#  12]+0.006*[#  18]+0.006*[#  24]+0.001*[#  25]+
    |psi|^2 = 0.999
==== e(  18) =     2.43317 eV ==== 
     psi = 0.103*[#   1]+0.103*[#   4]+0.103*[#   7]+0.103*[#  10]+0.103*[#  13]+
          +0.103*[#  16]+0.103*[#  19]+0.103*[#  22]+0.012*[#   2]+0.012*[#   3]+
          +0.012*[#   5]+0.012*[#   8]+0.012*[#   9]+0.012*[#  11]+0.012*[#  14]+
          +0.012*[#  15]+0.012*[#  17]+0.012*[#  20]+0.012*[#  21]+0.012*[#  23]+
          +0.006*[#   6]+0.006*[#  12]+0.006*[#  18]+0.006*[#  24]+0.001*[#  29]+
    |psi|^2 = 0.999
==== e(  19) =     2.60802 eV ==== 
     psi = 0.077*[#   2]+0.077*[#   3]+0.077*[#   5]+0.077*[#   8]+0.077*[#   9]+
          +0.077*[#  11]+0.077*[#  14]+0.077*[#  15]+0.077*[#  17]+0.077*[#  20]+
          +0.077*[#  21]+0.077*[#  23]+0.007*[#   1]+0.007*[#   4]+0.007*[#   7]+
          +0.007*[#  10]+0.007*[#  13]+0.007*[#  16]+0.007*[#  19]+0.007*[#  22]+
          +0.004*[#  26]+0.004*[#  27]+0.004*[#  28]+
    |psi|^2 = 0.999
==== e(  20) =     2.60802 eV ==== 
     psi = 0.077*[#   2]+0.077*[#   3]+0.077*[#   5]+0.077*[#   8]+0.077*[#   9]+
          +0.077*[#  11]+0.077*[#  14]+0.077*[#  15]+0.077*[#  17]+0.077*[#  20]+
          +0.077*[#  21]+0.077*[#  23]+0.007*[#   1]+0.007*[#   4]+0.007*[#   7]+
          +0.007*[#  10]+0.007*[#  13]+0.007*[#  16]+0.007*[#  19]+0.007*[#  22]+
          +0.004*[#  30]+0.004*[#  31]+0.004*[#  32]+
    |psi|^2 = 0.999
==== e(  21) =     2.80510 eV ==== 
     psi = 0.069*[#   1]+0.069*[#   4]+0.069*[#   7]+0.069*[#  10]+0.069*[#  13]+
          +0.069*[#  16]+0.069*[#  19]+0.069*[#  22]+0.030*[#   2]+0.030*[#   3]+
          +0.030*[#   5]+0.030*[#   8]+0.030*[#   9]+0.030*[#  11]+0.030*[#  14]+
          +0.030*[#  15]+0.030*[#  17]+0.030*[#  20]+0.030*[#  21]+0.030*[#  23]+
          +0.022*[#  25]+0.017*[#  30]+0.017*[#  31]+0.017*[#  32]+0.004*[#   6]+
          +0.004*[#  12]+0.004*[#  18]+0.004*[#  24]+
    |psi|^2 = 0.998
==== e(  22) =     2.80513 eV ==== 
     psi = 0.069*[#   1]+0.069*[#   4]+0.069*[#   7]+0.069*[#  10]+0.069*[#  13]+
          +0.069*[#  16]+0.069*[#  19]+0.069*[#  22]+0.030*[#   2]+0.030*[#   3]+
          +0.030*[#   5]+0.030*[#   8]+0.030*[#   9]+0.030*[#  11]+0.030*[#  14]+
          +0.030*[#  15]+0.030*[#  17]+0.030*[#  20]+0.030*[#  21]+0.030*[#  23]+
          +0.022*[#  29]+0.017*[#  26]+0.017*[#  27]+0.017*[#  28]+0.004*[#   6]+
          +0.004*[#  12]+0.004*[#  18]+0.004*[#  24]+
    |psi|^2 = 0.998
==== e(  23) =     4.62811 eV ==== 
     psi = 0.092*[#  30]+0.092*[#  31]+0.092*[#  32]+0.063*[#   6]+0.063*[#  12]+
          +0.063*[#  18]+0.063*[#  24]+0.023*[#   2]+0.023*[#   3]+0.023*[#   5]+
          +0.023*[#   8]+0.023*[#   9]+0.023*[#  11]+0.023*[#  14]+0.023*[#  15]+
          +0.023*[#  17]+0.023*[#  20]+0.023*[#  21]+0.023*[#  23]+0.019*[#   1]+
          +0.019*[#   4]+0.019*[#   7]+0.019*[#  10]+0.019*[#  13]+0.019*[#  16]+
          +0.019*[#  19]+0.019*[#  22]+0.009*[#  25]+0.008*[#  26]+0.008*[#  27]+
          +0.008*[#  28]+
    |psi|^2 = 0.986
==== e(  24) =     4.62811 eV ==== 
     psi = 0.092*[#  26]+0.092*[#  27]+0.092*[#  28]+0.063*[#   6]+0.063*[#  12]+
          +0.063*[#  18]+0.063*[#  24]+0.023*[#   2]+0.023*[#   3]+0.023*[#   5]+
          +0.023*[#   8]+0.023*[#   9]+0.023*[#  11]+0.023*[#  14]+0.023*[#  15]+
          +0.023*[#  17]+0.023*[#  20]+0.023*[#  21]+0.023*[#  23]+0.019*[#   1]+
          +0.019*[#   4]+0.019*[#   7]+0.019*[#  10]+0.019*[#  13]+0.019*[#  16]+
          +0.019*[#  19]+0.019*[#  22]+0.009*[#  29]+0.008*[#  30]+0.008*[#  31]+
          +0.008*[#  32]+
    |psi|^2 = 0.986
==== e(  25) =     5.54428 eV ==== 
     psi = 0.134*[#  30]+0.134*[#  31]+0.134*[#  32]+0.101*[#  26]+0.101*[#  27]+
          +0.101*[#  28]+0.021*[#   1]+0.021*[#   4]+0.021*[#   7]+0.021*[#  10]+
          +0.021*[#  13]+0.021*[#  16]+0.021*[#  19]+0.021*[#  22]+0.009*[#   2]+
          +0.009*[#   3]+0.009*[#   5]+0.009*[#   8]+0.009*[#   9]+0.009*[#  11]+
          +0.009*[#  14]+0.009*[#  15]+0.009*[#  17]+0.009*[#  20]+0.009*[#  21]+
          +0.009*[#  23]+
    |psi|^2 = 0.984
==== e(  26) =     5.54428 eV ==== 
     psi = 0.134*[#  26]+0.134*[#  27]+0.134*[#  28]+0.101*[#  30]+0.101*[#  31]+
          +0.101*[#  32]+0.021*[#   1]+0.021*[#   4]+0.021*[#   7]+0.021*[#  10]+
          +0.021*[#  13]+0.021*[#  16]+0.021*[#  19]+0.021*[#  22]+0.009*[#   2]+
          +0.009*[#   3]+0.009*[#   5]+0.009*[#   8]+0.009*[#   9]+0.009*[#  11]+
          +0.009*[#  14]+0.009*[#  15]+0.009*[#  17]+0.009*[#  20]+0.009*[#  21]+
          +0.009*[#  23]+
    |psi|^2 = 0.984
==== e(  27) =     6.40947 eV ==== 
     psi = 0.127*[#  30]+0.127*[#  31]+0.127*[#  32]+0.032*[#  26]+0.032*[#  27]+
          +0.032*[#  28]+0.030*[#   2]+0.030*[#   3]+0.030*[#   5]+0.030*[#   8]+
          +0.030*[#   9]+0.030*[#  11]+0.030*[#  14]+0.030*[#  15]+0.030*[#  17]+
          +0.030*[#  20]+0.030*[#  21]+0.030*[#  23]+0.024*[#   6]+0.024*[#  12]+
          +0.024*[#  18]+0.024*[#  24]+0.006*[#   1]+0.006*[#   4]+0.006*[#   7]+
          +0.006*[#  10]+0.006*[#  13]+0.006*[#  16]+0.006*[#  19]+0.006*[#  22]+
          +0.003*[#  25]+
    |psi|^2 = 0.993
==== e(  28) =     6.40949 eV ==== 
     psi = 0.127*[#  26]+0.127*[#  27]+0.127*[#  28]+0.032*[#  30]+0.032*[#  31]+
          +0.032*[#  32]+0.030*[#   2]+0.030*[#   3]+0.030*[#   5]+0.030*[#   8]+
          +0.030*[#   9]+0.030*[#  11]+0.030*[#  14]+0.030*[#  15]+0.030*[#  17]+
          +0.030*[#  20]+0.030*[#  21]+0.030*[#  23]+0.024*[#   6]+0.024*[#  12]+
          +0.024*[#  18]+0.024*[#  24]+0.006*[#   1]+0.006*[#   4]+0.006*[#   7]+
          +0.006*[#  10]+0.006*[#  13]+0.006*[#  16]+0.006*[#  19]+0.006*[#  22]+
          +0.003*[#  29]+
    |psi|^2 = 0.993
==== e(  29) =    10.41043 eV ==== 
     psi = 0.128*[#   6]+0.128*[#  12]+0.128*[#  18]+0.128*[#  24]+0.094*[#  25]+
          +0.056*[#  30]+0.056*[#  31]+0.056*[#  32]+0.010*[#   2]+0.010*[#   3]+
          +0.010*[#   5]+0.010*[#   8]+0.010*[#   9]+0.010*[#  11]+0.010*[#  14]+
          +0.010*[#  15]+0.010*[#  17]+0.010*[#  20]+0.010*[#  21]+0.010*[#  23]+
          +0.005*[#  26]+0.005*[#  27]+0.005*[#  28]+
    |psi|^2 = 0.910
==== e(  30) =    10.41067 eV ==== 
     psi = 0.128*[#   6]+0.128*[#  12]+0.128*[#  18]+0.128*[#  24]+0.094*[#  29]+
          +0.056*[#  26]+0.056*[#  27]+0.056*[#  28]+0.010*[#   2]+0.010*[#   3]+
          +0.010*[#   5]+0.010*[#   8]+0.010*[#   9]+0.010*[#  11]+0.010*[#  14]+
          +0.010*[#  15]+0.010*[#  17]+0.010*[#  20]+0.010*[#  21]+0.010*[#  23]+
          +0.005*[#  30]+0.005*[#  31]+0.005*[#  32]+
    |psi|^2 = 0.910
==== e(  31) =    12.40107 eV ==== 
     psi = 0.079*[#   6]+0.079*[#  12]+0.079*[#  18]+0.079*[#  24]+0.022*[#  30]+
          +0.022*[#  31]+0.022*[#  32]+0.013*[#  26]+0.013*[#  27]+0.013*[#  28]+
          +0.003*[#   2]+0.003*[#   3]+0.003*[#   5]+0.003*[#   8]+0.003*[#   9]+
          +0.003*[#  11]+0.003*[#  14]+0.003*[#  15]+0.003*[#  17]+0.003*[#  20]+
          +0.003*[#  21]+0.003*[#  23]+
    |psi|^2 = 0.462
==== e(  32) =    12.40108 eV ==== 
     psi = 0.079*[#   6]+0.079*[#  12]+0.079*[#  18]+0.079*[#  24]+0.022*[#  26]+
          +0.022*[#  27]+0.022*[#  28]+0.013*[#  30]+0.013*[#  31]+0.013*[#  32]+
          +0.003*[#   2]+0.003*[#   3]+0.003*[#   5]+0.003*[#   8]+0.003*[#   9]+
          +0.003*[#  11]+0.003*[#  14]+0.003*[#  15]+0.003*[#  17]+0.003*[#  20]+
          +0.003*[#  21]+0.003*[#  23]+
    |psi|^2 = 0.462

 k =   0.0000000000 -0.5000000000 -0.5000000000
==== e(   1) =   -11.42797 eV ==== 
     psi = 0.830*[#  25]+0.021*[#   6]+0.021*[#  12]+0.021*[#  18]+0.021*[#  24]+
          +0.007*[#   2]+0.007*[#   3]+0.007*[#   5]+0.007*[#   8]+0.007*[#   9]+
          +0.007*[#  11]+0.007*[#  14]+0.007*[#  15]+0.007*[#  17]+0.007*[#  20]+
          +0.007*[#  21]+0.007*[#  23]+
    |psi|^2 = 0.999
==== e(   2) =   -11.42630 eV ==== 
     psi = 0.830*[#  29]+0.021*[#   6]+0.021*[#  12]+0.021*[#  18]+0.021*[#  24]+
          +0.007*[#   2]+0.007*[#   3]+0.007*[#   5]+0.007*[#   8]+0.007*[#   9]+
          +0.007*[#  11]+0.007*[#  14]+0.007*[#  15]+0.007*[#  17]+0.007*[#  20]+
          +0.007*[#  21]+0.007*[#  23]+
    |psi|^2 = 0.999
==== e(   3) =     0.02190 eV ==== 
     psi = 0.073*[#  26]+0.073*[#  27]+0.073*[#  28]+0.073*[#  30]+0.073*[#  31]+
          +0.073*[#  32]+0.027*[#   2]+0.027*[#   3]+0.027*[#   5]+0.027*[#   8]+
          +0.027*[#   9]+0.027*[#  11]+0.027*[#  14]+0.027*[#  15]+0.027*[#  17]+
          +0.027*[#  20]+0.027*[#  21]+0.027*[#  23]+0.022*[#   1]+0.022*[#   4]+
          +0.022*[#   7]+0.022*[#  10]+0.022*[#  13]+0.022*[#  16]+0.022*[#  19]+
          +0.022*[#  22]+0.014*[#   6]+0.014*[#  12]+0.014*[#  18]+0.014*[#  24]+
    |psi|^2 = 0.998
==== e(   4) =     0.02190 eV ==== 
     psi = 0.073*[#  26]+0.073*[#  27]+0.073*[#  28]+0.073*[#  30]+0.073*[#  31]+
          +0.073*[#  32]+0.027*[#   2]+0.027*[#   3]+0.027*[#   5]+0.027*[#   8]+
          +0.027*[#   9]+0.027*[#  11]+0.027*[#  14]+0.027*[#  15]+0.027*[#  17]+
          +0.027*[#  20]+0.027*[#  21]+0.027*[#  23]+0.022*[#   1]+0.022*[#   4]+
          +0.022*[#   7]+0.022*[#  10]+0.022*[#  13]+0.022*[#  16]+0.022*[#  19]+
          +0.022*[#  22]+0.014*[#   6]+0.014*[#  12]+0.014*[#  18]+0.014*[#  24]+
    |psi|^2 = 0.998
==== e(   5) =     0.27610 eV ==== 
     psi = 0.108*[#  26]+0.108*[#  27]+0.108*[#  28]+0.050*[#   1]+0.050*[#   4]+
          +0.050*[#   7]+0.050*[#  10]+0.050*[#  13]+0.050*[#  16]+0.050*[#  19]+
          +0.050*[#  22]+0.022*[#   2]+0.022*[#   3]+0.022*[#   5]+0.022*[#   8]+
          +0.022*[#   9]+0.022*[#  11]+0.022*[#  14]+0.022*[#  15]+0.022*[#  17]+
          +0.022*[#  20]+0.022*[#  21]+0.022*[#  23]+0.011*[#  29]+
    |psi|^2 = 0.997
==== e(   6) =     0.27613 eV ==== 
     psi = 0.108*[#  30]+0.108*[#  31]+0.108*[#  32]+0.050*[#   1]+0.050*[#   4]+
          +0.050*[#   7]+0.050*[#  10]+0.050*[#  13]+0.050*[#  16]+0.050*[#  19]+
          +0.050*[#  22]+0.022*[#   2]+0.022*[#   3]+0.022*[#   5]+0.022*[#   8]+
          +0.022*[#   9]+0.022*[#  11]+0.022*[#  14]+0.022*[#  15]+0.022*[#  17]+
          +0.022*[#  20]+0.022*[#  21]+0.022*[#  23]+0.011*[#  25]+
    |psi|^2 = 0.997
==== e(   7) =     0.62880 eV ==== 
     psi = 0.047*[#   2]+0.047*[#   3]+0.047*[#   5]+0.047*[#   8]+0.047*[#   9]+
          +0.047*[#  11]+0.047*[#  14]+0.047*[#  15]+0.047*[#  17]+0.047*[#  20]+
          +0.047*[#  21]+0.047*[#  23]+0.042*[#  26]+0.042*[#  27]+0.042*[#  28]+
          +0.042*[#  30]+0.042*[#  31]+0.042*[#  32]+0.023*[#   1]+0.023*[#   4]+
          +0.023*[#   7]+0.023*[#  10]+0.023*[#  13]+0.023*[#  16]+0.023*[#  19]+
          +0.023*[#  22]+
    |psi|^2 = 0.997
==== e(   8) =     0.62880 eV ==== 
     psi = 0.047*[#   2]+0.047*[#   3]+0.047*[#   5]+0.047*[#   8]+0.047*[#   9]+
          +0.047*[#  11]+0.047*[#  14]+0.047*[#  15]+0.047*[#  17]+0.047*[#  20]+
          +0.047*[#  21]+0.047*[#  23]+0.042*[#  26]+0.042*[#  27]+0.042*[#  28]+
          +0.042*[#  30]+0.042*[#  31]+0.042*[#  32]+0.023*[#   1]+0.023*[#   4]+
          +0.023*[#   7]+0.023*[#  10]+0.023*[#  13]+0.023*[#  16]+0.023*[#  19]+
          +0.023*[#  22]+
    |psi|^2 = 0.997
==== e(   9) =     1.49271 eV ==== 
     psi = 0.069*[#   2]+0.069*[#   3]+0.069*[#   5]+0.069*[#   8]+0.069*[#   9]+
          +0.069*[#  11]+0.069*[#  14]+0.069*[#  15]+0.069*[#  17]+0.069*[#  20]+
          +0.069*[#  21]+0.069*[#  23]+0.016*[#   6]+0.016*[#  12]+0.016*[#  18]+
          +0.016*[#  24]+0.013*[#   1]+0.013*[#   4]+0.013*[#   7]+0.013*[#  10]+
          +0.013*[#  13]+0.013*[#  16]+0.013*[#  19]+0.013*[#  22]+
    |psi|^2 = 0.999
==== e(  10) =     1.49271 eV ==== 
     psi = 0.069*[#   2]+0.069*[#   3]+0.069*[#   5]+0.069*[#   8]+0.069*[#   9]+
          +0.069*[#  11]+0.069*[#  14]+0.069*[#  15]+0.069*[#  17]+0.069*[#  20]+
          +0.069*[#  21]+0.069*[#  23]+0.016*[#   6]+0.016*[#  12]+0.016*[#  18]+
          +0.016*[#  24]+0.013*[#   1]+0.013*[#   4]+0.013*[#   7]+0.013*[#  10]+
          +0.013*[#  13]+0.013*[#  16]+0.013*[#  19]+0.013*[#  22]+
    |psi|^2 = 0.999
==== e(  11) =     1.55793 eV ==== 
     psi = 0.073*[#   2]+0.073*[#   3]+0.073*[#   5]+0.073*[#   8]+0.073*[#   9]+
          +0.073*[#  11]+0.073*[#  14]+0.073*[#  15]+0.073*[#  17]+0.073*[#  20]+
          +0.073*[#  21]+0.073*[#  23]+0.012*[#   6]+0.012*[#  12]+0.012*[#  18]+
          +0.012*[#  24]+0.006*[#   1]+0.006*[#   4]+0.006*[#   7]+0.006*[#  10]+
          +0.006*[#  13]+0.006*[#  16]+0.006*[#  19]+0.006*[#  22]+0.006*[#  30]+
          +0.006*[#  31]+0.006*[#  32]+
    |psi|^2 = 0.996
==== e(  12) =     1.55794 eV ==== 
     psi = 0.073*[#   2]+0.073*[#   3]+0.073*[#   5]+0.073*[#   8]+0.073*[#   9]+
          +0.073*[#  11]+0.073*[#  14]+0.073*[#  15]+0.073*[#  17]+0.073*[#  20]+
          +0.073*[#  21]+0.073*[#  23]+0.012*[#   6]+0.012*[#  12]+0.012*[#  18]+
          +0.012*[#  24]+0.006*[#   1]+0.006*[#   4]+0.006*[#   7]+0.006*[#  10]+
          +0.006*[#  13]+0.006*[#  16]+0.006*[#  19]+0.006*[#  22]+0.006*[#  26]+
          +0.006*[#  27]+0.006*[#  28]+
    |psi|^2 = 0.996
==== e(  13) =     1.88951 eV ==== 
     psi = 0.084*[#   1]+0.084*[#   4]+0.084*[#   7]+0.084*[#  10]+0.084*[#  13]+
          +0.084*[#  16]+0.084*[#  19]+0.084*[#  22]+0.026*[#   2]+0.026*[#   3]+
          +0.026*[#   5]+0.026*[#   8]+0.026*[#   9]+0.026*[#  11]+0.026*[#  14]+
          +0.026*[#  15]+0.026*[#  17]+0.026*[#  20]+0.026*[#  21]+0.026*[#  23]+
[...]
          +0.058*[#  11]+0.058*[#  14]+0.058*[#  15]+0.058*[#  17]+0.058*[#  20]+
          +0.058*[#  21]+0.058*[#  23]+0.038*[#   1]+0.038*[#   4]+0.038*[#   7]+
          +0.038*[#  10]+0.038*[#  13]+0.038*[#  16]+0.038*[#  19]+0.038*[#  22]+
    |psi|^2 = 1.000
==== e(  20) =     2.72155 eV ==== 
     psi = 0.081*[#   1]+0.081*[#   4]+0.081*[#   7]+0.081*[#  10]+0.081*[#  13]+
          +0.081*[#  16]+0.081*[#  19]+0.081*[#  22]+0.025*[#   2]+0.025*[#   3]+
          +0.025*[#   5]+0.025*[#   8]+0.025*[#   9]+0.025*[#  11]+0.025*[#  14]+
          +0.025*[#  15]+0.025*[#  17]+0.025*[#  20]+0.025*[#  21]+0.025*[#  23]+
          +0.007*[#  25]+0.007*[#  29]+0.006*[#  26]+0.006*[#  27]+0.006*[#  28]+
          +0.006*[#  30]+0.006*[#  31]+0.006*[#  32]+
    |psi|^2 = 0.999
==== e(  21) =     2.75639 eV ==== 
     psi = 0.054*[#   2]+0.054*[#   3]+0.054*[#   5]+0.054*[#   8]+0.054*[#   9]+
          +0.054*[#  11]+0.054*[#  14]+0.054*[#  15]+0.054*[#  17]+0.054*[#  20]+
          +0.054*[#  21]+0.054*[#  23]+0.044*[#   1]+0.044*[#   4]+0.044*[#   7]+
          +0.044*[#  10]+0.044*[#  13]+0.044*[#  16]+0.044*[#  19]+0.044*[#  22]+
    |psi|^2 = 1.000
==== e(  22) =     3.27423 eV ==== 
     psi = 0.044*[#  26]+0.044*[#  27]+0.044*[#  28]+0.044*[#  30]+0.044*[#  31]+
          +0.044*[#  32]+0.042*[#   1]+0.042*[#   4]+0.042*[#   7]+0.042*[#  10]+
          +0.042*[#  13]+0.042*[#  16]+0.042*[#  19]+0.042*[#  22]+0.028*[#   2]+
          +0.028*[#   3]+0.028*[#   5]+0.028*[#   8]+0.028*[#   9]+0.028*[#  11]+
          +0.028*[#  14]+0.028*[#  15]+0.028*[#  17]+0.028*[#  20]+0.028*[#  21]+
          +0.028*[#  23]+0.019*[#  25]+0.019*[#  29]+0.003*[#   6]+0.003*[#  12]+
          +0.003*[#  18]+0.003*[#  24]+
    |psi|^2 = 0.993
==== e(  23) =     4.18416 eV ==== 
     psi = 0.082*[#  26]+0.082*[#  27]+0.082*[#  28]+0.082*[#  30]+0.082*[#  31]+
          +0.082*[#  32]+0.021*[#   6]+0.021*[#  12]+0.021*[#  18]+0.021*[#  24]+
          +0.020*[#   1]+0.020*[#   4]+0.020*[#   7]+0.020*[#  10]+0.020*[#  13]+
          +0.020*[#  16]+0.020*[#  19]+0.020*[#  22]+0.019*[#   2]+0.019*[#   3]+
          +0.019*[#   5]+0.019*[#   8]+0.019*[#   9]+0.019*[#  11]+0.019*[#  14]+
          +0.019*[#  15]+0.019*[#  17]+0.019*[#  20]+0.019*[#  21]+0.019*[#  23]+
    |psi|^2 = 0.971
==== e(  24) =     4.18416 eV ==== 
     psi = 0.082*[#  26]+0.082*[#  27]+0.082*[#  28]+0.082*[#  30]+0.082*[#  31]+
          +0.082*[#  32]+0.021*[#   6]+0.021*[#  12]+0.021*[#  18]+0.021*[#  24]+
          +0.020*[#   1]+0.020*[#   4]+0.020*[#   7]+0.020*[#  10]+0.020*[#  13]+
          +0.020*[#  16]+0.020*[#  19]+0.020*[#  22]+0.019*[#   2]+0.019*[#   3]+
          +0.019*[#   5]+0.019*[#   8]+0.019*[#   9]+0.019*[#  11]+0.019*[#  14]+
          +0.019*[#  15]+0.019*[#  17]+0.019*[#  20]+0.019*[#  21]+0.019*[#  23]+
    |psi|^2 = 0.971
==== e(  25) =     5.45904 eV ==== 
     psi = 0.066*[#  26]+0.066*[#  27]+0.066*[#  28]+0.066*[#  30]+0.066*[#  31]+
          +0.066*[#  32]+0.040*[#   2]+0.040*[#   3]+0.040*[#   5]+0.040*[#   8]+
          +0.040*[#   9]+0.040*[#  11]+0.040*[#  14]+0.040*[#  15]+0.040*[#  17]+
          +0.040*[#  20]+0.040*[#  21]+0.040*[#  23]+0.027*[#  25]+0.027*[#  29]+
          +0.004*[#   1]+0.004*[#   4]+0.004*[#   7]+0.004*[#  10]+0.004*[#  13]+
          +0.004*[#  16]+0.004*[#  19]+0.004*[#  22]+0.003*[#   6]+0.003*[#  12]+
          +0.003*[#  18]+0.003*[#  24]+
    |psi|^2 = 0.975
==== e(  26) =     5.99830 eV ==== 
     psi = 0.079*[#  26]+0.079*[#  27]+0.079*[#  28]+0.079*[#  30]+0.079*[#  31]+
          +0.079*[#  32]+0.040*[#   6]+0.040*[#  12]+0.040*[#  18]+0.040*[#  24]+
          +0.024*[#   2]+0.024*[#   3]+0.024*[#   5]+0.024*[#   8]+0.024*[#   9]+
          +0.024*[#  11]+0.024*[#  14]+0.024*[#  15]+0.024*[#  17]+0.024*[#  20]+
          +0.024*[#  21]+0.024*[#  23]+0.008*[#   1]+0.008*[#   4]+0.008*[#   7]+
          +0.008*[#  10]+0.008*[#  13]+0.008*[#  16]+0.008*[#  19]+0.008*[#  22]+
    |psi|^2 = 0.994
==== e(  27) =     5.99830 eV ==== 
     psi = 0.079*[#  26]+0.079*[#  27]+0.079*[#  28]+0.079*[#  30]+0.079*[#  31]+
          +0.079*[#  32]+0.040*[#   6]+0.040*[#  12]+0.040*[#  18]+0.040*[#  24]+
          +0.024*[#   2]+0.024*[#   3]+0.024*[#   5]+0.024*[#   8]+0.024*[#   9]+
          +0.024*[#  11]+0.024*[#  14]+0.024*[#  15]+0.024*[#  17]+0.024*[#  20]+
          +0.024*[#  21]+0.024*[#  23]+0.008*[#   1]+0.008*[#   4]+0.008*[#   7]+
          +0.008*[#  10]+0.008*[#  13]+0.008*[#  16]+0.008*[#  19]+0.008*[#  22]+
    |psi|^2 = 0.994
==== e(  28) =     6.40677 eV ==== 
     psi = 0.069*[#  26]+0.069*[#  27]+0.069*[#  28]+0.069*[#  30]+0.069*[#  31]+
          +0.069*[#  32]+0.044*[#   6]+0.044*[#  12]+0.044*[#  18]+0.044*[#  24]+
          +0.031*[#   2]+0.031*[#   3]+0.031*[#   5]+0.031*[#   8]+0.031*[#   9]+
          +0.031*[#  11]+0.031*[#  14]+0.031*[#  15]+0.031*[#  17]+0.031*[#  20]+
          +0.031*[#  21]+0.031*[#  23]+0.004*[#   1]+0.004*[#   4]+0.004*[#   7]+
          +0.004*[#  10]+0.004*[#  13]+0.004*[#  16]+0.004*[#  19]+0.004*[#  22]+
    |psi|^2 = 0.994
==== e(  29) =    10.39130 eV ==== 
     psi = 0.117*[#   6]+0.117*[#  12]+0.117*[#  18]+0.117*[#  24]+0.033*[#  25]+
          +0.033*[#  29]+0.004*[#  26]+0.004*[#  27]+0.004*[#  28]+0.004*[#  30]+
          +0.004*[#  31]+0.004*[#  32]+
    |psi|^2 = 0.570
==== e(  30) =    11.72233 eV ==== 
     psi = 0.054*[#   6]+0.054*[#  12]+0.054*[#  18]+0.054*[#  24]+0.027*[#  26]+
          +0.027*[#  27]+0.027*[#  28]+0.027*[#  30]+0.027*[#  31]+0.027*[#  32]+
          +0.005*[#   2]+0.005*[#   3]+0.005*[#   5]+0.005*[#   8]+0.005*[#   9]+
          +0.005*[#  11]+0.005*[#  14]+0.005*[#  15]+0.005*[#  17]+0.005*[#  20]+
          +0.005*[#  21]+0.005*[#  23]+
    |psi|^2 = 0.439
==== e(  31) =    11.72233 eV ==== 
     psi = 0.054*[#   6]+0.054*[#  12]+0.054*[#  18]+0.054*[#  24]+0.027*[#  26]+
          +0.027*[#  27]+0.027*[#  28]+0.027*[#  30]+0.027*[#  31]+0.027*[#  32]+
          +0.005*[#   2]+0.005*[#   3]+0.005*[#   5]+0.005*[#   8]+0.005*[#   9]+
          +0.005*[#  11]+0.005*[#  14]+0.005*[#  15]+0.005*[#  17]+0.005*[#  20]+
          +0.005*[#  21]+0.005*[#  23]+
    |psi|^2 = 0.439
==== e(  32) =    11.90129 eV ==== 
     psi = 0.162*[#   6]+0.162*[#  12]+0.162*[#  18]+0.162*[#  24]+0.022*[#  26]+
          +0.022*[#  27]+0.022*[#  28]+0.022*[#  30]+0.022*[#  31]+0.022*[#  32]+
          +0.020*[#  25]+0.020*[#  29]+0.006*[#   2]+0.006*[#   3]+0.006*[#   5]+
          +0.006*[#   8]+0.006*[#   9]+0.006*[#  11]+0.006*[#  14]+0.006*[#  15]+
          +0.006*[#  17]+0.006*[#  20]+0.006*[#  21]+0.006*[#  23]+0.002*[#   1]+
          +0.002*[#   4]+0.002*[#   7]+0.002*[#  10]+0.002*[#  13]+0.002*[#  16]+
          +0.002*[#  19]+0.002*[#  22]+
    |psi|^2 = 0.910

 k =  -0.5000000000 -0.5000000000 -0.5000000000
==== e(   1) =   -12.42067 eV ==== 
     psi = 0.371*[#  25]+0.370*[#  29]+0.026*[#   6]+0.026*[#  12]+0.026*[#  18]+
          +0.026*[#  24]+0.013*[#   2]+0.013*[#   3]+0.013*[#   5]+0.013*[#   8]+
          +0.013*[#   9]+0.013*[#  11]+0.013*[#  14]+0.013*[#  15]+0.013*[#  17]+
          +0.013*[#  20]+0.013*[#  21]+0.013*[#  23]+
    |psi|^2 = 0.999
==== e(   2) =   -10.48988 eV ==== 
     psi = 0.498*[#  29]+0.497*[#  25]+
    |psi|^2 = 0.996
==== e(   3) =    -0.84446 eV ==== 
     psi = 0.057*[#  26]+0.057*[#  27]+0.057*[#  28]+0.057*[#  30]+0.057*[#  31]+
          +0.057*[#  32]+0.040*[#   2]+0.040*[#   3]+0.040*[#   5]+0.040*[#   8]+
          +0.040*[#   9]+0.040*[#  11]+0.040*[#  14]+0.040*[#  15]+0.040*[#  17]+
          +0.040*[#  20]+0.040*[#  21]+0.040*[#  23]+0.015*[#   6]+0.015*[#  12]+
          +0.015*[#  18]+0.015*[#  24]+0.015*[#   1]+0.015*[#   4]+0.015*[#   7]+
          +0.015*[#  10]+0.015*[#  13]+0.015*[#  16]+0.015*[#  19]+0.015*[#  22]+
    |psi|^2 = 0.999
==== e(   4) =    -0.84446 eV ==== 
     psi = 0.057*[#  26]+0.057*[#  27]+0.057*[#  28]+0.057*[#  30]+0.057*[#  31]+
          +0.057*[#  32]+0.040*[#   2]+0.040*[#   3]+0.040*[#   5]+0.040*[#   8]+
          +0.040*[#   9]+0.040*[#  11]+0.040*[#  14]+0.040*[#  15]+0.040*[#  17]+
          +0.040*[#  20]+0.040*[#  21]+0.040*[#  23]+0.015*[#   6]+0.015*[#  12]+
          +0.015*[#  18]+0.015*[#  24]+0.015*[#   1]+0.015*[#   4]+0.015*[#   7]+
          +0.015*[#  10]+0.015*[#  13]+0.015*[#  16]+0.015*[#  19]+0.015*[#  22]+
    |psi|^2 = 0.999
==== e(   5) =    -0.84446 eV ==== 
     psi = 0.057*[#  26]+0.057*[#  27]+0.057*[#  28]+0.057*[#  30]+0.057*[#  31]+
          +0.057*[#  32]+0.040*[#   2]+0.040*[#   3]+0.040*[#   5]+0.040*[#   8]+
          +0.040*[#   9]+0.040*[#  11]+0.040*[#  14]+0.040*[#  15]+0.040*[#  17]+
          +0.040*[#  20]+0.040*[#  21]+0.040*[#  23]+0.015*[#   6]+0.015*[#  12]+
          +0.015*[#  18]+0.015*[#  24]+0.015*[#   1]+0.015*[#   4]+0.015*[#   7]+
          +0.015*[#  10]+0.015*[#  13]+0.015*[#  16]+0.015*[#  19]+0.015*[#  22]+
    |psi|^2 = 0.999
==== e(   6) =     0.69558 eV ==== 
     psi = 0.066*[#   2]+0.066*[#   3]+0.066*[#   5]+0.066*[#   8]+0.066*[#   9]+
          +0.066*[#  11]+0.066*[#  14]+0.066*[#  15]+0.066*[#  17]+0.066*[#  20]+
          +0.066*[#  21]+0.066*[#  23]+0.015*[#   1]+0.015*[#   4]+0.015*[#   7]+
          +0.015*[#  10]+0.015*[#  13]+0.015*[#  16]+0.015*[#  19]+0.015*[#  22]+
          +0.010*[#   6]+0.010*[#  12]+0.010*[#  18]+0.010*[#  24]+0.008*[#  26]+
          +0.008*[#  27]+0.008*[#  28]+0.008*[#  30]+0.008*[#  31]+0.008*[#  32]+
    |psi|^2 = 1.000
==== e(   7) =     0.69558 eV ==== 
     psi = 0.066*[#   2]+0.066*[#   3]+0.066*[#   5]+0.066*[#   8]+0.066*[#   9]+
          +0.066*[#  11]+0.066*[#  14]+0.066*[#  15]+0.066*[#  17]+0.066*[#  20]+
          +0.066*[#  21]+0.066*[#  23]+0.015*[#   1]+0.015*[#   4]+0.015*[#   7]+
          +0.015*[#  10]+0.015*[#  13]+0.015*[#  16]+0.015*[#  19]+0.015*[#  22]+
          +0.010*[#   6]+0.010*[#  12]+0.010*[#  18]+0.010*[#  24]+0.008*[#  26]+
          +0.008*[#  27]+0.008*[#  28]+0.008*[#  30]+0.008*[#  31]+0.008*[#  32]+
    |psi|^2 = 1.000
==== e(   8) =     0.69558 eV ==== 
     psi = 0.066*[#   2]+0.066*[#   3]+0.066*[#   5]+0.066*[#   8]+0.066*[#   9]+
          +0.066*[#  11]+0.066*[#  14]+0.066*[#  15]+0.066*[#  17]+0.066*[#  20]+
          +0.066*[#  21]+0.066*[#  23]+0.015*[#   1]+0.015*[#   4]+0.015*[#   7]+
          +0.015*[#  10]+0.015*[#  13]+0.015*[#  16]+0.015*[#  19]+0.015*[#  22]+
          +0.010*[#   6]+0.010*[#  12]+0.010*[#  18]+0.010*[#  24]+0.008*[#  26]+
          +0.008*[#  27]+0.008*[#  28]+0.008*[#  30]+0.008*[#  31]+0.008*[#  32]+
    |psi|^2 = 1.000
==== e(   9) =     1.55996 eV ==== 
     psi = 0.076*[#   1]+0.076*[#   4]+0.076*[#   7]+0.076*[#  10]+0.076*[#  13]+
          +0.076*[#  16]+0.076*[#  19]+0.076*[#  22]+0.033*[#   2]+0.033*[#   3]+
          +0.033*[#   5]+0.033*[#   8]+0.033*[#   9]+0.033*[#  11]+0.033*[#  14]+
          +0.033*[#  15]+0.033*[#  17]+0.033*[#  20]+0.033*[#  21]+0.033*[#  23]+
    |psi|^2 = 0.999
==== e(  10) =     1.55996 eV ==== 
     psi = 0.076*[#   1]+0.076*[#   4]+0.076*[#   7]+0.076*[#  10]+0.076*[#  13]+
          +0.076*[#  16]+0.076*[#  19]+0.076*[#  22]+0.033*[#   2]+0.033*[#   3]+
          +0.033*[#   5]+0.033*[#   8]+0.033*[#   9]+0.033*[#  11]+0.033*[#  14]+
          +0.033*[#  15]+0.033*[#  17]+0.033*[#  20]+0.033*[#  21]+0.033*[#  23]+
    |psi|^2 = 0.999
==== e(  11) =     1.72724 eV ==== 
     psi = 0.079*[#   1]+0.079*[#   4]+0.079*[#   7]+0.079*[#  10]+0.079*[#  13]+
          +0.079*[#  16]+0.079*[#  19]+0.079*[#  22]+0.031*[#   2]+0.031*[#   3]+
          +0.031*[#   5]+0.031*[#   8]+0.031*[#   9]+0.031*[#  11]+0.031*[#  14]+
          +0.031*[#  15]+0.031*[#  17]+0.031*[#  20]+0.031*[#  21]+0.031*[#  23]+
    |psi|^2 = 1.000
==== e(  12) =     1.72724 eV ==== 
     psi = 0.079*[#   1]+0.079*[#   4]+0.079*[#   7]+0.079*[#  10]+0.079*[#  13]+
          +0.079*[#  16]+0.079*[#  19]+0.079*[#  22]+0.031*[#   2]+0.031*[#   3]+
          +0.031*[#   5]+0.031*[#   8]+0.031*[#   9]+0.031*[#  11]+0.031*[#  14]+
          +0.031*[#  15]+0.031*[#  17]+0.031*[#  20]+0.031*[#  21]+0.031*[#  23]+
    |psi|^2 = 1.000
==== e(  13) =     1.72724 eV ==== 
     psi = 0.079*[#   1]+0.079*[#   4]+0.079*[#   7]+0.079*[#  10]+0.079*[#  13]+
          +0.079*[#  16]+0.079*[#  19]+0.079*[#  22]+0.031*[#   2]+0.031*[#   3]+
          +0.031*[#   5]+0.031*[#   8]+0.031*[#   9]+0.031*[#  11]+0.031*[#  14]+
          +0.031*[#  15]+0.031*[#  17]+0.031*[#  20]+0.031*[#  21]+0.031*[#  23]+
    |psi|^2 = 1.000
==== e(  14) =     2.69695 eV ==== 
     psi = 0.089*[#   1]+0.089*[#   4]+0.089*[#   7]+0.089*[#  10]+0.089*[#  13]+
          +0.089*[#  16]+0.089*[#  19]+0.089*[#  22]+0.022*[#   2]+0.022*[#   3]+
          +0.022*[#   5]+0.022*[#   8]+0.022*[#   9]+0.022*[#  11]+0.022*[#  14]+
          +0.022*[#  15]+0.022*[#  17]+0.022*[#  20]+0.022*[#  21]+0.022*[#  23]+
          +0.003*[#  26]+0.003*[#  27]+0.003*[#  28]+0.003*[#  30]+0.003*[#  31]+
          +0.003*[#  32]+
    |psi|^2 = 1.000
==== e(  15) =     2.69695 eV ==== 
     psi = 0.089*[#   1]+0.089*[#   4]+0.089*[#   7]+0.089*[#  10]+0.089*[#  13]+
          +0.089*[#  16]+0.089*[#  19]+0.089*[#  22]+0.022*[#   2]+0.022*[#   3]+
          +0.022*[#   5]+0.022*[#   8]+0.022*[#   9]+0.022*[#  11]+0.022*[#  14]+
          +0.022*[#  15]+0.022*[#  17]+0.022*[#  20]+0.022*[#  21]+0.022*[#  23]+
          +0.003*[#  26]+0.003*[#  27]+0.003*[#  28]+0.003*[#  30]+0.003*[#  31]+
          +0.003*[#  32]+
    |psi|^2 = 1.000
==== e(  16) =     2.69695 eV ==== 
     psi = 0.089*[#   1]+0.089*[#   4]+0.089*[#   7]+0.089*[#  10]+0.089*[#  13]+
          +0.089*[#  16]+0.089*[#  19]+0.089*[#  22]+0.022*[#   2]+0.022*[#   3]+
          +0.022*[#   5]+0.022*[#   8]+0.022*[#   9]+0.022*[#  11]+0.022*[#  14]+
          +0.022*[#  15]+0.022*[#  17]+0.022*[#  20]+0.022*[#  21]+0.022*[#  23]+
          +0.003*[#  26]+0.003*[#  27]+0.003*[#  28]+0.003*[#  30]+0.003*[#  31]+
          +0.003*[#  32]+
    |psi|^2 = 1.000
==== e(  17) =     2.84011 eV ==== 
     psi = 0.053*[#   2]+0.053*[#   3]+0.053*[#   5]+0.053*[#   8]+0.053*[#   9]+
          +0.053*[#  11]+0.053*[#  14]+0.053*[#  15]+0.053*[#  17]+0.053*[#  20]+
          +0.053*[#  21]+0.053*[#  23]+0.046*[#   1]+0.046*[#   4]+0.046*[#   7]+
          +0.046*[#  10]+0.046*[#  13]+0.046*[#  16]+0.046*[#  19]+0.046*[#  22]+
    |psi|^2 = 1.000
==== e(  18) =     2.84011 eV ==== 
     psi = 0.053*[#   2]+0.053*[#   3]+0.053*[#   5]+0.053*[#   8]+0.053*[#   9]+
          +0.053*[#  11]+0.053*[#  14]+0.053*[#  15]+0.053*[#  17]+0.053*[#  20]+
          +0.053*[#  21]+0.053*[#  23]+0.046*[#   1]+0.046*[#   4]+0.046*[#   7]+
          +0.046*[#  10]+0.046*[#  13]+0.046*[#  16]+0.046*[#  19]+0.046*[#  22]+
    |psi|^2 = 1.000
==== e(  19) =     2.84011 eV ==== 
     psi = 0.053*[#   2]+0.053*[#   3]+0.053*[#   5]+0.053*[#   8]+0.053*[#   9]+
          +0.053*[#  11]+0.053*[#  14]+0.053*[#  15]+0.053*[#  17]+0.053*[#  20]+
          +0.053*[#  21]+0.053*[#  23]+0.046*[#   1]+0.046*[#   4]+0.046*[#   7]+
          +0.046*[#  10]+0.046*[#  13]+0.046*[#  16]+0.046*[#  19]+0.046*[#  22]+
    |psi|^2 = 1.000
==== e(  20) =     2.92447 eV ==== 
     psi = 0.050*[#   2]+0.050*[#   3]+0.050*[#   5]+0.050*[#   8]+0.050*[#   9]+
          +0.050*[#  11]+0.050*[#  14]+0.050*[#  15]+0.050*[#  17]+0.050*[#  20]+
          +0.050*[#  21]+0.050*[#  23]+0.049*[#   1]+0.049*[#   4]+0.049*[#   7]+
          +0.049*[#  10]+0.049*[#  13]+0.049*[#  16]+0.049*[#  19]+0.049*[#  22]+
    |psi|^2 = 1.000
==== e(  21) =     2.92447 eV ==== 
     psi = 0.050*[#   2]+0.050*[#   3]+0.050*[#   5]+0.050*[#   8]+0.050*[#   9]+
          +0.050*[#  11]+0.050*[#  14]+0.050*[#  15]+0.050*[#  17]+0.050*[#  20]+
          +0.050*[#  21]+0.050*[#  23]+0.049*[#   1]+0.049*[#   4]+0.049*[#   7]+
          +0.049*[#  10]+0.049*[#  13]+0.049*[#  16]+0.049*[#  19]+0.049*[#  22]+
    |psi|^2 = 1.000
==== e(  22) =     3.29851 eV ==== 
     psi = 0.156*[#  26]+0.156*[#  27]+0.156*[#  28]+0.156*[#  30]+0.156*[#  31]+
          +0.156*[#  32]+
    |psi|^2 = 0.937
==== e(  23) =     3.29851 eV ==== 
     psi = 0.156*[#  26]+0.156*[#  27]+0.156*[#  28]+0.156*[#  30]+0.156*[#  31]+
          +0.156*[#  32]+
    |psi|^2 = 0.937
==== e(  24) =     3.29851 eV ==== 
     psi = 0.156*[#  26]+0.156*[#  27]+0.156*[#  28]+0.156*[#  30]+0.156*[#  31]+
          +0.156*[#  32]+
    |psi|^2 = 0.937
==== e(  25) =     4.59705 eV ==== 
     psi = 0.070*[#   2]+0.070*[#   3]+0.070*[#   5]+0.070*[#   8]+0.070*[#   9]+
          +0.070*[#  11]+0.070*[#  14]+0.070*[#  15]+0.070*[#  17]+0.070*[#  20]+
          +0.070*[#  21]+0.070*[#  23]+0.058*[#  25]+0.058*[#  29]+0.010*[#   6]+
          +0.010*[#  12]+0.010*[#  18]+0.010*[#  24]+
    |psi|^2 = 0.998
==== e(  26) =     6.38701 eV ==== 
     psi = 0.062*[#  26]+0.062*[#  27]+0.062*[#  28]+0.062*[#  30]+0.062*[#  31]+
          +0.062*[#  32]+0.051*[#   6]+0.051*[#  12]+0.051*[#  18]+0.051*[#  24]+
          +0.032*[#   2]+0.032*[#   3]+0.032*[#   5]+0.032*[#   8]+0.032*[#   9]+
          +0.032*[#  11]+0.032*[#  14]+0.032*[#  15]+0.032*[#  17]+0.032*[#  20]+
          +0.032*[#  21]+0.032*[#  23]+0.004*[#   1]+0.004*[#   4]+0.004*[#   7]+
          +0.004*[#  10]+0.004*[#  13]+0.004*[#  16]+0.004*[#  19]+0.004*[#  22]+
    |psi|^2 = 0.998
==== e(  27) =     6.38701 eV ==== 
     psi = 0.062*[#  26]+0.062*[#  27]+0.062*[#  28]+0.062*[#  30]+0.062*[#  31]+
          +0.062*[#  32]+0.051*[#   6]+0.051*[#  12]+0.051*[#  18]+0.051*[#  24]+
          +0.032*[#   2]+0.032*[#   3]+0.032*[#   5]+0.032*[#   8]+0.032*[#   9]+
          +0.032*[#  11]+0.032*[#  14]+0.032*[#  15]+0.032*[#  17]+0.032*[#  20]+
          +0.032*[#  21]+0.032*[#  23]+0.004*[#   1]+0.004*[#   4]+0.004*[#   7]+
          +0.004*[#  10]+0.004*[#  13]+0.004*[#  16]+0.004*[#  19]+0.004*[#  22]+
    |psi|^2 = 0.998
==== e(  28) =     6.38701 eV ==== 
     psi = 0.062*[#  26]+0.062*[#  27]+0.062*[#  28]+0.062*[#  30]+0.062*[#  31]+
          +0.062*[#  32]+0.051*[#   6]+0.051*[#  12]+0.051*[#  18]+0.051*[#  24]+
          +0.032*[#   2]+0.032*[#   3]+0.032*[#   5]+0.032*[#   8]+0.032*[#   9]+
          +0.032*[#  11]+0.032*[#  14]+0.032*[#  15]+0.032*[#  17]+0.032*[#  20]+
          +0.032*[#  21]+0.032*[#  23]+0.004*[#   1]+0.004*[#   4]+0.004*[#   7]+
          +0.004*[#  10]+0.004*[#  13]+0.004*[#  16]+0.004*[#  19]+0.004*[#  22]+
    |psi|^2 = 0.998
==== e(  29) =    11.09562 eV ==== 
     psi = 0.009*[#  26]+0.009*[#  27]+0.009*[#  28]+0.009*[#  30]+0.009*[#  31]+
          +0.009*[#  32]+
    |psi|^2 = 0.057
==== e(  30) =    11.09562 eV ==== 
     psi = 0.009*[#  26]+0.009*[#  27]+0.009*[#  28]+0.009*[#  30]+0.009*[#  31]+
          +0.009*[#  32]+
    |psi|^2 = 0.057
==== e(  31) =    11.09562 eV ==== 
     psi = 0.009*[#  26]+0.009*[#  27]+0.009*[#  28]+0.009*[#  30]+0.009*[#  31]+
          +0.009*[#  32]+
    |psi|^2 = 0.057
==== e(  32) =    13.29947 eV ==== 
     psi = 0.169*[#   6]+0.169*[#  12]+0.169*[#  18]+0.169*[#  24]+0.034*[#  26]+
          +0.034*[#  27]+0.034*[#  28]+0.034*[#  30]+0.034*[#  31]+0.034*[#  32]+
          +0.006*[#   2]+0.006*[#   3]+0.006*[#   5]+0.006*[#   8]+0.006*[#   9]+
          +0.006*[#  11]+0.006*[#  14]+0.006*[#  15]+0.006*[#  17]+0.006*[#  20]+
          +0.006*[#  21]+0.006*[#  23]+0.002*[#   1]+0.002*[#   4]+0.002*[#   7]+
          +0.002*[#  10]+0.002*[#  13]+0.002*[#  16]+0.002*[#  19]+0.002*[#  22]+
    |psi|^2 = 0.972

Lowdin Charges: 

     Atom #   1: total charge =  10.4320, s =  0.6201, p =  0.0000, d =  9.8119, 
     Atom #   2: total charge =  10.4320, s =  0.6201, p =  0.0000, d =  9.8119, 
     Atom #   3: total charge =  10.4320, s =  0.6201, p =  0.0000, d =  9.8119, 
     Atom #   4: total charge =  10.4320, s =  0.6201, p =  0.0000, d =  9.8119, 
     Atom #   5: total charge =   7.0080, s =  1.7821, p =  5.2259, d =  0.0000, 
     Atom #   6: total charge =   7.0080, s =  1.7821, p =  5.2259, d =  0.0000, 
     Spilling Parameter:   0.0046
