
     Program PWSCF v.5.0        starts on 18Jun2012 at 10: 4:34 

     This program is part of the open-source Quantum ESPRESSO suite
     for quantum simulation of materials; please cite
         "P. Giannozzi et al., J. Phys.:Condens. Matter 21 395502 (2009);
          URL http://www.quantum-espresso.org", 
     in publications or presentations arising from this work. More details at
     http://www.quantum-espresso.org/quote.php

     Parallel version (MPI), running on     4 processors
     K-points division:     npool     =    4

     Current dimensions of program PWSCF are:
     Max number of different atomic species (ntypx) = 10
     Max number of k-points (npk) =  40000
     Max angular momentum in pseudopotentials (lmaxx) =  3
     Waiting for input...
     Reading input from standard input
               file O.pbe-rrkjus.UPF: wavefunction(s)  2S renormalized

     Subspace diagonalization in iterative solution of the eigenvalue problem:
     a serial algorithm will be used

 
     G-vector sticks info
     --------------------
     sticks:   dense  smooth     PW     G-vecs:    dense   smooth      PW
     Sum        1609     641    185                48501    12197    1863
 


     bravais-lattice index     =            1
     lattice parameter (alat)  =       8.2100  a.u.
     unit-cell volume          =     553.3877 (a.u.)^3
     number of atoms/cell      =            6
     number of atomic types    =            2
     number of electrons       =        56.00
     number of Kohn-Sham states=           28
     kinetic-energy cutoff     =      30.0000  Ry
     charge density cutoff     =     300.0000  Ry
     convergence threshold     =      1.0E-06
     mixing beta               =       0.3000
     number of iterations used =            8  plain     mixing
     Exchange-correlation      =  SLA  PW   PBE  PBE ( 1 4 3 4 0)
     EXX-fraction              =        0.00

     celldm(1)=   8.210000  celldm(2)=   0.000000  celldm(3)=   0.000000
     celldm(4)=   0.000000  celldm(5)=   0.000000  celldm(6)=   0.000000

     crystal axes: (cart. coord. in units of alat)
               a(1) = (   1.000000   0.000000   0.000000 )  
               a(2) = (   0.000000   1.000000   0.000000 )  
               a(3) = (   0.000000   0.000000   1.000000 )  

     reciprocal axes: (cart. coord. in units 2 pi/alat)
               b(1) = (  1.000000  0.000000  0.000000 )  
               b(2) = (  0.000000  1.000000  0.000000 )  
               b(3) = (  0.000000  0.000000  1.000000 )  


     PseudoPot. # 1 for Cu read from file:
     ../pseudo/Cu.pbe-d-rrkjus.UPF
     MD5 check sum: 855c9c66b119533e70b4be5d3ca221fe
     Pseudo is Ultrasoft, Zval = 11.0
     Generated by new atomic code, or converted to UPF format
     Using radial grid of  899 points,  3 beta functions with: 
                l(1) =   2
                l(2) =   2
                l(3) =   1
     Q(r) pseudized with 0 coefficients 


     PseudoPot. # 2 for O  read from file:
     ../pseudo/O.pbe-rrkjus.UPF
     MD5 check sum: 390ba29e75625707450f3bd3f0eb6be9
     Pseudo is Ultrasoft, Zval =  6.0
     Generated by new atomic code, or converted to UPF format
     Using radial grid of 1269 points,  4 beta functions with: 
                l(1) =   0
                l(2) =   0
                l(3) =   1
                l(4) =   1
     Q(r) pseudized with 0 coefficients 


     atomic species   valence    mass     pseudopotential
        Cu            11.00     1.00000     Cu( 1.00)
        O              6.00     1.00000     O ( 1.00)
 -----
     simplified LDA+U calculation, Hubbard_lmax = 2
     atomic species  L   Hubbard U  Hubbard alpha
        Cu           2   10.420000    0.000000
        O            1    0.000000    0.000000
 -----

     24 Sym. Ops. (no inversion) found
          (note: 24 additional sym.ops. were found but ignored
           their fractional transations are incommensurate with FFT grid)


   Cartesian axes

     site n.     atom                  positions (alat units)
         1           Cu  tau(   1) = (   0.2500000   0.2500000   0.2500000  )
         2           Cu  tau(   2) = (   0.7500000   0.2500000   0.7500000  )
         3           Cu  tau(   3) = (   0.7500000   0.7500000   0.2500000  )
         4           Cu  tau(   4) = (   0.2500000   0.7500000   0.7500000  )
         5           O   tau(   5) = (   0.0000000   0.0000000   0.0000000  )
         6           O   tau(   6) = (   0.5000000   0.5000000   0.5000000  )

     number of k points=    10
                       cart. coord. in units 2pi/alat
        k(    1) = (   0.0000000   0.0000000   0.0000000), wk =   0.0312500
        k(    2) = (   0.0000000   0.0000000   0.2500000), wk =   0.1875000
        k(    3) = (   0.0000000   0.0000000  -0.5000000), wk =   0.0937500
        k(    4) = (   0.0000000   0.2500000   0.2500000), wk =   0.3750000
        k(    5) = (   0.0000000   0.2500000  -0.5000000), wk =   0.3750000
        k(    6) = (   0.0000000  -0.5000000  -0.5000000), wk =   0.0937500
        k(    7) = (   0.2500000   0.2500000   0.2500000), wk =   0.2500000
        k(    8) = (   0.2500000   0.2500000  -0.5000000), wk =   0.3750000
        k(    9) = (   0.2500000  -0.5000000  -0.5000000), wk =   0.1875000
        k(   10) = (  -0.5000000  -0.5000000  -0.5000000), wk =   0.0312500

     Dense  grid:    48501 G-vectors     FFT dimensions: (  45,  45,  45)

     Smooth grid:    12197 G-vectors     FFT dimensions: (  30,  30,  30)

     Largest allocated arrays     est. size (Mb)     dimensions
        Kohn-Sham Wavefunctions         0.67 Mb     (   1568,   28)
        Atomic wavefunctions            0.77 Mb     (   1568,   32)
        NL pseudopotentials             1.63 Mb     (   1568,   68)
        Each V/rho on FFT grid          1.39 Mb     (  91125)
        Each G-vector array             0.37 Mb     (  48501)
        G-vector shells                 0.00 Mb     (    428)
     Largest temporary arrays     est. size (Mb)     dimensions
        Auxiliary wavefunctions         2.68 Mb     (   1568,  112)
        Each subspace H/S matrix        0.19 Mb     ( 112, 112)
        Each <psi_i|beta_j> matrix      0.03 Mb     (     68,   28)
        Arrays for rho mixing          11.12 Mb     (  91125,   8)

     Initial potential from superposition of free atoms

     starting charge   55.99824, renormalised to   56.00000
     Number of +U iterations with fixed ns =  0
     Starting occupations:
 --- enter write_ns ---
 LDA+U parameters:
U( 1)     = 10.42000000
alpha( 1) =  0.00000000
U( 2)     =  0.00000000
alpha( 2) =  0.00000000
atom    1   Tr[ns(na)] =  10.00000
    eigenvalues: 
  1.000  1.000  1.000  1.000  1.000
    eigenvectors:
  1.000  0.000  0.000  0.000  0.000
  0.000  1.000  0.000  0.000  0.000
  0.000  0.000  1.000  0.000  0.000
  0.000  0.000  0.000  1.000  0.000
  0.000  0.000  0.000  0.000  1.000
    occupations:
  1.000  0.000  0.000  0.000  0.000
  0.000  1.000  0.000  0.000  0.000
  0.000  0.000  1.000  0.000  0.000
  0.000  0.000  0.000  1.000  0.000
  0.000  0.000  0.000  0.000  1.000
atom    2   Tr[ns(na)] =  10.00000
    eigenvalues: 
  1.000  1.000  1.000  1.000  1.000
    eigenvectors:
  1.000  0.000  0.000  0.000  0.000
  0.000  1.000  0.000  0.000  0.000
  0.000  0.000  1.000  0.000  0.000
  0.000  0.000  0.000  1.000  0.000
  0.000  0.000  0.000  0.000  1.000
    occupations:
  1.000  0.000  0.000  0.000  0.000
  0.000  1.000  0.000  0.000  0.000
  0.000  0.000  1.000  0.000  0.000
  0.000  0.000  0.000  1.000  0.000
  0.000  0.000  0.000  0.000  1.000
atom    3   Tr[ns(na)] =  10.00000
    eigenvalues: 
  1.000  1.000  1.000  1.000  1.000
    eigenvectors:
  1.000  0.000  0.000  0.000  0.000
  0.000  1.000  0.000  0.000  0.000
  0.000  0.000  1.000  0.000  0.000
  0.000  0.000  0.000  1.000  0.000
  0.000  0.000  0.000  0.000  1.000
    occupations:
  1.000  0.000  0.000  0.000  0.000
  0.000  1.000  0.000  0.000  0.000
  0.000  0.000  1.000  0.000  0.000
  0.000  0.000  0.000  1.000  0.000
  0.000  0.000  0.000  0.000  1.000
atom    4   Tr[ns(na)] =  10.00000
    eigenvalues: 
  1.000  1.000  1.000  1.000  1.000
    eigenvectors:
  1.000  0.000  0.000  0.000  0.000
  0.000  1.000  0.000  0.000  0.000
  0.000  0.000  1.000  0.000  0.000
  0.000  0.000  0.000  1.000  0.000
  0.000  0.000  0.000  0.000  1.000
    occupations:
  1.000  0.000  0.000  0.000  0.000
  0.000  1.000  0.000  0.000  0.000
  0.000  0.000  1.000  0.000  0.000
  0.000  0.000  0.000  1.000  0.000
  0.000  0.000  0.000  0.000  1.000
atom    5   Tr[ns(na)] =   4.00000
    eigenvalues: 
  0.667  0.667  0.667
    eigenvectors:
  1.000  0.000  0.000
  0.000  1.000  0.000
  0.000  0.000  1.000
    occupations:
  0.667  0.000  0.000
  0.000  0.667  0.000
  0.000  0.000  0.667
atom    6   Tr[ns(na)] =   4.00000
    eigenvalues: 
  0.667  0.667  0.667
    eigenvectors:
  1.000  0.000  0.000
  0.000  1.000  0.000
  0.000  0.000  1.000
    occupations:
  0.667  0.000  0.000
  0.000  0.667  0.000
  0.000  0.000  0.667
N of occupied +U levels =  48.0000000
 --- exit write_ns ---
 Atomic wfc used for LDA+U Projector are NOT orthogonalized
     Starting wfc are   32 randomized atomic wfcs

     total cpu time spent up to now is        2.1 secs

     per-process dynamical memory:    25.7 Mb

     Self-consistent Calculation

     iteration #  1     ecut=    30.00 Ry     beta=0.30
     Davidson diagonalization with overlap
     ethr =  1.00E-02,  avg # of iterations =  1.6
 --- enter write_ns ---
 LDA+U parameters:
U( 1)     = 10.42000000
alpha( 1) =  0.00000000
U( 2)     =  0.00000000
alpha( 2) =  0.00000000
atom    1   Tr[ns(na)] =   9.88614
    eigenvalues: 
  0.952  0.997  0.997  0.999  0.999
    eigenvectors:
  0.000  0.173  0.093  0.443  0.290
  0.333  0.410  0.079  0.004  0.173
  0.333  0.006  0.483  0.155  0.023
  0.000  0.093  0.173  0.290  0.443
  0.333  0.318  0.171  0.107  0.070
    occupations:
  0.998  0.000  0.000  0.000 -0.001
  0.000  0.982 -0.015 -0.001  0.015
  0.000 -0.015  0.982  0.001  0.015
  0.000 -0.001  0.001  0.998  0.000
 -0.001  0.015  0.015  0.000  0.982
atom    2   Tr[ns(na)] =   9.88614
    eigenvalues: 
  0.952  0.997  0.997  0.999  0.999
    eigenvectors:
  0.000  0.263  0.003  0.026  0.708
  0.333  0.173  0.316  0.158  0.019
  0.333  0.077  0.412  0.102  0.076
  0.000  0.003  0.263  0.708  0.026
  0.333  0.483  0.006  0.006  0.171
    occupations:
  0.998  0.000  0.000  0.000  0.001
  0.000  0.982  0.015 -0.001 -0.015
  0.000  0.015  0.982 -0.001  0.015
  0.000 -0.001 -0.001  0.998  0.000
  0.001 -0.015  0.015  0.000  0.982
atom    3   Tr[ns(na)] =   9.88614
    eigenvalues: 
  0.952  0.997  0.997  0.999  0.999
    eigenvectors:
  0.000  0.196  0.070  0.612  0.121
  0.333  0.373  0.116  0.002  0.176
  0.333  0.000  0.489  0.116  0.061
  0.000  0.070  0.196  0.121  0.612
  0.333  0.360  0.129  0.148  0.029
    occupations:
  0.998  0.000  0.000  0.000 -0.001
  0.000  0.982 -0.015  0.001 -0.015
  0.000 -0.015  0.982 -0.001 -0.015
  0.000  0.001 -0.001  0.998  0.000
 -0.001 -0.015 -0.015  0.000  0.982
atom    4   Tr[ns(na)] =   9.88614
    eigenvalues: 
  0.952  0.997  0.997  0.999  0.999
    eigenvectors:
  0.000  0.113  0.153  0.469  0.264
  0.333  0.053  0.436  0.150  0.027
  0.333  0.472  0.017  0.003  0.175
  0.000  0.153  0.113  0.264  0.469
  0.333  0.208  0.281  0.114  0.064
    occupations:
  0.998  0.000  0.000  0.000  0.001
  0.000  0.982  0.015  0.001  0.015
  0.000  0.015  0.982  0.001 -0.015
  0.000  0.001  0.001  0.998  0.000
  0.001  0.015 -0.015  0.000  0.982
atom    5   Tr[ns(na)] =   5.97095
    eigenvalues: 
  0.995  0.995  0.995
    eigenvectors:
  0.159  0.234  0.607
  0.729  0.013  0.258
  0.112  0.753  0.135
    occupations:
  0.995  0.000  0.000
  0.000  0.995  0.000
  0.000  0.000  0.995
atom    6   Tr[ns(na)] =   5.97124
    eigenvalues: 
  0.995  0.995  0.995
    eigenvectors:
  0.210  0.216  0.574
  0.716  0.001  0.283
  0.074  0.783  0.143
    occupations:
  0.995  0.000  0.000
  0.000  0.995  0.000
  0.000  0.000  0.995
N of occupied +U levels =  51.4867370
 --- exit write_ns ---

     total cpu time spent up to now is        3.9 secs

     total energy              =    -413.77511697 Ry
     Harris-Foulkes estimate   =    -414.27084289 Ry
     estimated scf accuracy    <       1.10614742 Ry

     iteration #  2     ecut=    30.00 Ry     beta=0.30
     Davidson diagonalization with overlap
     ethr =  1.98E-03,  avg # of iterations =  3.0

     total cpu time spent up to now is        5.8 secs

     total energy              =    -414.03774717 Ry
     Harris-Foulkes estimate   =    -414.04759826 Ry
     estimated scf accuracy    <       0.03982563 Ry

     iteration #  3     ecut=    30.00 Ry     beta=0.30
     Davidson diagonalization with overlap
     ethr =  7.11E-05,  avg # of iterations =  2.0

     total cpu time spent up to now is        7.6 secs

     total energy              =    -414.03946596 Ry
     Harris-Foulkes estimate   =    -414.04224470 Ry
     estimated scf accuracy    <       0.01042042 Ry

     iteration #  4     ecut=    30.00 Ry     beta=0.30
     Davidson diagonalization with overlap
     ethr =  1.86E-05,  avg # of iterations =  2.2

     total cpu time spent up to now is        9.4 secs

     total energy              =    -414.03991978 Ry
     Harris-Foulkes estimate   =    -414.04037510 Ry
     estimated scf accuracy    <       0.00128086 Ry

     iteration #  5     ecut=    30.00 Ry     beta=0.30
     Davidson diagonalization with overlap
     ethr =  2.29E-06,  avg # of iterations =  2.9

     total cpu time spent up to now is       11.4 secs

     total energy              =    -414.04014768 Ry
     Harris-Foulkes estimate   =    -414.04027773 Ry
     estimated scf accuracy    <       0.00037994 Ry

     iteration #  6     ecut=    30.00 Ry     beta=0.30
     Davidson diagonalization with overlap
     ethr =  6.78E-07,  avg # of iterations =  2.4

     total cpu time spent up to now is       13.3 secs

     total energy              =    -414.04019726 Ry
     Harris-Foulkes estimate   =    -414.04019620 Ry
     estimated scf accuracy    <       0.00001330 Ry

     iteration #  7     ecut=    30.00 Ry     beta=0.30
     Davidson diagonalization with overlap
     ethr =  2.38E-08,  avg # of iterations =  3.1

     total cpu time spent up to now is       15.2 secs

     total energy              =    -414.04020054 Ry
     Harris-Foulkes estimate   =    -414.04019942 Ry
     estimated scf accuracy    <       0.00000194 Ry

     iteration #  8     ecut=    30.00 Ry     beta=0.30
     Davidson diagonalization with overlap
     ethr =  3.47E-09,  avg # of iterations =  2.6

     total cpu time spent up to now is       17.1 secs

     End of self-consistent calculation
 --- enter write_ns ---
 LDA+U parameters:
U( 1)     = 10.42000000
alpha( 1) =  0.00000000
U( 2)     =  0.00000000
alpha( 2) =  0.00000000
atom    1   Tr[ns(na)] =   9.90474
    eigenvalues: 
  0.958  0.998  0.998  0.999  0.999
    eigenvectors:
  0.000  0.031  0.003  0.387  0.579
  0.333  0.336  0.308  0.003  0.020
  0.333  0.036  0.608  0.022  0.001
  0.000  0.003  0.031  0.579  0.387
  0.333  0.593  0.051  0.009  0.014
    occupations:
  0.999  0.000  0.000  0.000  0.000
  0.000  0.985 -0.013  0.000  0.013
  0.000 -0.013  0.985  0.000  0.013
  0.000  0.000  0.000  0.999  0.000
  0.000  0.013  0.013  0.000  0.985
atom    2   Tr[ns(na)] =   9.90474
    eigenvalues: 
  0.958  0.998  0.998  0.999  0.999
    eigenvectors:
  0.000  0.019  0.015  0.001  0.965
  0.333  0.581  0.063  0.018  0.005
  0.333  0.027  0.618  0.016  0.006
  0.000  0.015  0.019  0.965  0.001
  0.333  0.359  0.285  0.000  0.023
    occupations:
  0.999  0.000  0.000  0.000  0.000
  0.000  0.985  0.013  0.000 -0.013
  0.000  0.013  0.985  0.000  0.013
  0.000  0.000  0.000  0.999  0.000
  0.000 -0.013  0.013  0.000  0.985
atom    3   Tr[ns(na)] =   9.90474
    eigenvalues: 
  0.958  0.998  0.998  0.999  0.999
    eigenvectors:
  0.000  0.033  0.000  0.786  0.180
  0.333  0.101  0.543  0.000  0.022
  0.333  0.230  0.414  0.015  0.007
  0.000  0.000  0.033  0.180  0.786
  0.333  0.635  0.009  0.018  0.004
    occupations:
  0.999  0.000  0.000  0.000  0.000
  0.000  0.985 -0.013  0.000 -0.013
  0.000 -0.013  0.985  0.000 -0.013
  0.000  0.000  0.000  0.999  0.000
  0.000 -0.013 -0.013  0.000  0.985
atom    4   Tr[ns(na)] =   9.90474
    eigenvalues: 
  0.958  0.998  0.998  0.999  0.999
    eigenvectors:
  0.000  0.016  0.018  0.528  0.438
  0.333  0.057  0.587  0.020  0.002
  0.333  0.613  0.031  0.001  0.022
  0.000  0.018  0.016  0.438  0.528
  0.333  0.296  0.348  0.012  0.010
    occupations:
  0.999  0.000  0.000  0.000  0.000
  0.000  0.985  0.013  0.000  0.013
  0.000  0.013  0.985  0.000 -0.013
  0.000  0.000  0.000  0.999  0.000
  0.000  0.013 -0.013  0.000  0.985
atom    5   Tr[ns(na)] =   5.72461
    eigenvalues: 
  0.954  0.954  0.954
    eigenvectors:
  0.264  0.187  0.549
  0.649  0.003  0.348
  0.087  0.810  0.103
    occupations:
  0.954  0.000  0.000
  0.000  0.954  0.000
  0.000  0.000  0.954
atom    6   Tr[ns(na)] =   5.72466
    eigenvalues: 
  0.954  0.954  0.954
    eigenvectors:
  0.089  0.323  0.588
  0.554  0.133  0.313
  0.357  0.544  0.099
    occupations:
  0.954  0.000  0.000
  0.000  0.954  0.000
  0.000  0.000  0.954
N of occupied +U levels =  51.0682124
 --- exit write_ns ---

          k = 0.0000 0.0000 0.0000 (  1551 PWs)   bands (ev):

   -12.0186 -10.4211  -1.4050  -1.4050  -1.4050   0.5145   0.5145   1.1148
     1.1148   1.1148   1.6018   2.3426   2.3426   2.7353   2.7353   2.7353
     2.8155   2.8155   2.8155   3.0183   3.0183   3.0183   4.1339   4.1339
     4.1339   7.0700   7.0700   7.0700

          k = 0.0000 0.0000 0.2500 (  1526 PWs)   bands (ev):

   -11.8337 -10.7318  -0.9815  -0.9815  -0.8838   0.5567   0.7458   1.0011
     1.0011   1.1731   1.7401   2.1271   2.1692   2.1692   2.4117   2.4426
     2.5872   2.6725   2.6725   2.7609   2.9404   2.9404   3.8825   4.9249
     4.9249   5.8258   6.8823   6.8823

          k = 0.0000 0.0000-0.5000 (  1510 PWs)   bands (ev):

   -11.3438 -11.3421  -0.1042  -0.1042   0.1971   0.1971   0.2203   0.2203
     1.2717   1.2717   1.4491   1.4491   2.1442   2.1442   2.3529   2.3529
     2.3934   2.3934   2.5820   2.5820   2.9114   2.9114   4.3397   4.3397
     5.6049   5.6049   6.5643   6.5643

          k = 0.0000 0.2500 0.2500 (  1554 PWs)   bands (ev):

   -11.7163 -10.9516  -0.7816  -0.6391  -0.3415   0.6428   0.6481   0.8726
     1.0153   1.4110   1.6969   1.8036   1.9594   2.1994   2.2111   2.3220
     2.3415   2.5219   2.6507   2.6768   2.7606   2.8483   4.2735   5.0132
     5.2492   5.5813   6.4419   6.7255

          k = 0.0000 0.2500-0.5000 (  1526 PWs)   bands (ev):

   -11.3853 -11.3837  -0.0162  -0.0162   0.1281   0.1281   0.5090   0.5090
     1.4190   1.4190   1.5354   1.5354   1.8849   1.8849   2.0227   2.0227
     2.4327   2.4327   2.6076   2.6076   2.8048   2.8048   4.6280   4.6280
     5.5445   5.5445   6.4095   6.4095

          k = 0.0000-0.5000-0.5000 (  1516 PWs)   bands (ev):

   -11.4274 -11.4257   0.0220   0.0220   0.2760   0.2760   0.6286   0.6286
     1.4924   1.4924   1.5576   1.5576   1.8892   1.8892   2.0346   2.0346
     2.0818   2.0818   2.4208   2.4208   2.9260   2.9261   4.7311   4.7311
     5.5761   5.5761   6.3163   6.3163

          k = 0.2500 0.2500 0.2500 (  1550 PWs)   bands (ev):

   -11.8030 -10.9435  -0.5772  -0.5772  -0.1690   0.7110   0.7110   0.8415
     1.1800   1.1800   1.4928   1.9476   1.9476   2.1149   2.1149   2.2957
     2.3164   2.3164   2.4653   2.8199   2.8199   2.8731   4.7616   4.8551
     4.8551   6.0567   6.0567   6.4502

          k = 0.2500 0.2500-0.5000 (  1528 PWs)   bands (ev):

   -11.8893 -10.9359  -0.3441  -0.3355  -0.2458   0.6479   0.7978   0.8641
     1.1475   1.2766   1.5787   1.7682   1.8147   1.9141   2.0455   2.1020
     2.3338   2.4490   2.6544   2.7495   2.7920   3.0195   4.3038   4.8671
     5.2407   5.8816   6.0518   6.3912

          k = 0.2500-0.5000-0.5000 (  1540 PWs)   bands (ev):

   -12.1180 -10.7640  -0.5264  -0.5264  -0.4588   0.8454   0.8454   0.8988
     1.0902   1.6689   1.6689   1.7285   1.8811   1.8943   1.8943   2.3127
     2.4975   2.4975   2.6619   2.7212   2.7560   3.2741   4.1842   4.1842
     5.4590   5.9983   5.9983   6.4067

          k =-0.5000-0.5000-0.5000 (  1568 PWs)   bands (ev):

   -12.4200 -10.4893  -0.8445  -0.8445  -0.8445   0.6953   0.6953   0.6953
     1.5595   1.5595   1.7269   1.7269   1.7269   2.6966   2.6966   2.6966
     2.8396   2.8396   2.8396   2.9241   2.9241   3.2989   3.2989   3.2989
     4.5967   6.3869   6.3869   6.3869

!    total energy              =    -414.04020143 Ry
     Harris-Foulkes estimate   =    -414.04020078 Ry
     estimated scf accuracy    <       0.00000010 Ry

     The total energy is the sum of the following terms:

     one-electron contribution =    -142.74043747 Ry
     hartree contribution      =     128.50732045 Ry
     xc contribution           =     -71.95628514 Ry
     ewald contribution        =    -327.99137008 Ry
     Hubbard energy            =       0.14057080 Ry

     convergence has been achieved in   8 iterations

     Writing output data file cu2o.save
 
     init_run     :      1.85s CPU      2.03s WALL (       1 calls)
     electrons    :     13.34s CPU     14.96s WALL (       1 calls)

     Called by init_run:
     wfcinit      :      0.25s CPU      0.27s WALL (       1 calls)
     potinit      :      0.14s CPU      0.17s WALL (       1 calls)

     Called by electrons:
     c_bands      :      4.50s CPU      4.76s WALL (       8 calls)
     sum_band     :      4.05s CPU      4.29s WALL (       8 calls)
     v_of_rho     :      0.91s CPU      1.10s WALL (       9 calls)
     newd         :      4.05s CPU      5.02s WALL (       9 calls)
     mix_rho      :      0.12s CPU      0.15s WALL (       8 calls)

     Called by c_bands:
     init_us_2    :      0.09s CPU      0.09s WALL (      54 calls)
     cegterg      :      4.20s CPU      4.41s WALL (      24 calls)

     Called by *egterg:
     h_psi        :      3.37s CPU      3.38s WALL (      90 calls)
     s_psi        :      0.23s CPU      0.21s WALL (      93 calls)
     g_psi        :      0.06s CPU      0.03s WALL (      63 calls)
     cdiaghg      :      0.20s CPU      0.21s WALL (      87 calls)

     Called by h_psi:
     add_vuspsi   :      0.21s CPU      0.20s WALL (      90 calls)

     General routines
     calbec       :      0.41s CPU      0.42s WALL (     231 calls)
     fft          :      0.60s CPU      0.77s WALL (     139 calls)
     ffts         :      0.03s CPU      0.02s WALL (      17 calls)
     fftw         :      2.62s CPU      2.62s WALL (    4094 calls)
     interpolate  :      0.12s CPU      0.16s WALL (      17 calls)
     davcio       :      0.00s CPU      0.12s WALL (     156 calls)
 
     Parallel routines
     fft_scatter  :      0.25s CPU      0.28s WALL (    4250 calls)
     EXX routines
 
     PWSCF        :    15.36s CPU        17.19s WALL

 
   This run was terminated on:  10: 4:51  18Jun2012            

=------------------------------------------------------------------------------=
   JOB DONE.
=------------------------------------------------------------------------------=
