
     Program PHONON v.4.3.2     starts on 23Jun2014 at  2:25:57 

     This program is part of the open-source Quantum ESPRESSO suite
     for quantum simulation of materials; please cite
         "P. Giannozzi et al., J. Phys.:Condens. Matter 21 395502 (2009);
          URL http://www.quantum-espresso.org", 
     in publications or presentations arising from this work. More details at
     http://www.quantum-espresso.org/wiki/index.php/Citing_Quantum-ESPRESSO

     Ultrasoft (Vanderbilt) Pseudopotentials
      Title line not specified: using 'default'.

   Info: using nr1, nr2, nr3 values from input

   Info: using nr1s, nr2s, nr3s values from input
 
     G-vector sticks info
     --------------------
     sticks:   dense  smooth     PW     G-vecs:    dense   smooth      PW
     Sum         301     301    109                 3383     3383     725
 


     Dynamical matrices for ( 4, 4, 4,)  uniform grid of q-points
     (   8q-points):
       N         xq(1)         xq(2)         xq(3) 
       1   0.000000000   0.000000000   0.000000000
       2  -0.250000000   0.250000000  -0.250000000
       3   0.500000000  -0.500000000   0.500000000
       4   0.000000000   0.500000000   0.000000000
       5   0.750000000  -0.250000000   0.750000000
       6   0.500000000   0.000000000   0.500000000
       7   0.000000000  -1.000000000   0.000000000
       8  -0.500000000  -1.000000000   0.000000000

     Calculation of q =    0.0000000   0.0000000   0.0000000

                                                                                

     bravais-lattice index     =            2
     lattice parameter (alat)  =      10.3463  a.u.
     unit-cell volume          =     276.8823 (a.u.)^3
     number of atoms/cell      =            2
     number of atomic types    =            1
     kinetic-energy cut-off    =      20.0000  Ry
     charge density cut-off    =      80.0000  Ry
     convergence threshold     =      1.0E-14
     beta                      =       0.7000
     number of iterations used =            4
     Exchange-correlation      =  SLA  PW   PBE  PBE ( 1 4 3 4 0)
     EXX-fraction              =        0.00


     celldm(1)=   10.34630  celldm(2)=    0.00000  celldm(3)=    0.00000
     celldm(4)=    0.00000  celldm(5)=    0.00000  celldm(6)=    0.00000

     crystal axes: (cart. coord. in units of alat)
               a(1) = ( -0.5000  0.0000  0.5000 )  
               a(2) = (  0.0000  0.5000  0.5000 )  
               a(3) = ( -0.5000  0.5000  0.0000 )  

     reciprocal axes: (cart. coord. in units 2 pi/alat)
               b(1) = ( -1.0000 -1.0000  1.0000 )  
               b(2) = (  1.0000  1.0000  1.0000 )  
               b(3) = ( -1.0000  1.0000 -1.0000 )  


     Atoms inside the unit cell: 

   Cartesian axes

     site n.  atom      mass           positions (alat units)
        1        Si  28.0860   tau( 1) = (    0.00000    0.00000    0.00000  )
        2        Si  28.0860   tau( 2) = (   -0.25000    0.25000    0.25000  )

     Computing dynamical matrix for 
                    q = (   0.0000000   0.0000000   0.0000000 )
 
     49 Sym.Ops. (with q -> -q+G )


     G cutoff =  216.9204  (   3383 G-vectors)     FFT grid: ( 24, 24, 24)
     number of k points=    28

     PseudoPot. # 1 for Si read from file:
     ./tmp/si.save/Si.pbe-rrkj.UPF
     MD5 check sum: cf7ab5690cd9a85b22c4813f7e365554
     Pseudo is Norm-conserving, Zval =  4.0
     Generated by new atomic code, or converted to UPF format
     Using radial grid of  883 points,  3 beta functions with: 
                l(1) =   0
                l(2) =   0
                l(3) =   1


     Electric field:
     Dielectric constant
     Born effective charges in two ways 


     Atomic displacements:
     There are   2 irreducible representations

     Representation     1      3 modes -T_2g G_25' G_5+ To be done

     Representation     2      3 modes -T_1u G_15  G_4- To be done



     Alpha used in Ewald sum =   0.8000
     PHONON       :     0.83s CPU         0.85s WALL


     Electric Fields Calculation

      iter #   1 total cpu time :     7.6 secs   av.it.:   6.2
      thresh= 0.100E-01 alpha_mix =  0.700 |ddv_scf|^2 =  0.486E-06

      iter #   2 total cpu time :    10.8 secs   av.it.:  10.5
      thresh= 0.697E-04 alpha_mix =  0.700 |ddv_scf|^2 =  0.274E-07

      iter #   3 total cpu time :    13.9 secs   av.it.:  10.3
      thresh= 0.166E-04 alpha_mix =  0.700 |ddv_scf|^2 =  0.159E-08

      iter #   4 total cpu time :    16.9 secs   av.it.:   9.7
      thresh= 0.399E-05 alpha_mix =  0.700 |ddv_scf|^2 =  0.570E-11

      iter #   5 total cpu time :    20.1 secs   av.it.:  10.5
      thresh= 0.239E-06 alpha_mix =  0.700 |ddv_scf|^2 =  0.109E-13

      iter #   6 total cpu time :    23.0 secs   av.it.:   9.3
      thresh= 0.104E-07 alpha_mix =  0.700 |ddv_scf|^2 =  0.714E-15

     End of electric fields calculation

          Dielectric constant in cartesian axis 

          (      12.911842549       0.000000000       0.000000000 )
          (       0.000000000      12.911842549       0.000000000 )
          (       0.000000000       0.000000000      12.911842549 )

          Effective charges (d Force / dE) in cartesian axis

           atom      1   Si 
      Ex  (       -0.00496        0.00000        0.00000 )
      Ey  (        0.00000       -0.00496        0.00000 )
      Ez  (        0.00000        0.00000       -0.00496 )
           atom      2   Si 
      Ex  (       -0.00496        0.00000        0.00000 )
      Ey  (        0.00000       -0.00496        0.00000 )
      Ez  (        0.00000        0.00000       -0.00496 )


     Representation #  1 modes #   1  2  3

     Self-consistent Calculation

      iter #   1 total cpu time :    26.5 secs   av.it.:   5.5
      thresh= 0.100E-01 alpha_mix =  0.700 |ddv_scf|^2 =  0.109E-06

      iter #   2 total cpu time :    29.7 secs   av.it.:  10.5
      thresh= 0.329E-04 alpha_mix =  0.700 |ddv_scf|^2 =  0.228E-08

      iter #   3 total cpu time :    33.1 secs   av.it.:  10.3
      thresh= 0.477E-05 alpha_mix =  0.700 |ddv_scf|^2 =  0.112E-09

      iter #   4 total cpu time :    36.0 secs   av.it.:   9.2
      thresh= 0.106E-05 alpha_mix =  0.700 |ddv_scf|^2 =  0.365E-13

      iter #   5 total cpu time :    39.2 secs   av.it.:  10.3
      thresh= 0.191E-07 alpha_mix =  0.700 |ddv_scf|^2 =  0.131E-14

     End of self-consistent calculation

     Convergence has been achieved 


     Representation #  2 modes #   4  5  6

     Self-consistent Calculation

      iter #   1 total cpu time :    41.7 secs   av.it.:   5.5
      thresh= 0.100E-01 alpha_mix =  0.700 |ddv_scf|^2 =  0.748E-07

      iter #   2 total cpu time :    44.9 secs   av.it.:  10.5
      thresh= 0.273E-04 alpha_mix =  0.700 |ddv_scf|^2 =  0.311E-08

      iter #   3 total cpu time :    48.1 secs   av.it.:  10.3
      thresh= 0.557E-05 alpha_mix =  0.700 |ddv_scf|^2 =  0.123E-09

      iter #   4 total cpu time :    51.1 secs   av.it.:   9.5
      thresh= 0.111E-05 alpha_mix =  0.700 |ddv_scf|^2 =  0.700E-13

      iter #   5 total cpu time :    54.4 secs   av.it.:  10.4
      thresh= 0.265E-07 alpha_mix =  0.700 |ddv_scf|^2 =  0.111E-14

     End of self-consistent calculation

     Convergence has been achieved 
 
     Number of q in the star =    1
     List of q in the star:
          1   0.000000000   0.000000000   0.000000000

          Dielectric constant in cartesian axis 

          (      12.911842549       0.000000000       0.000000000 )
          (       0.000000000      12.911842549       0.000000000 )
          (       0.000000000       0.000000000      12.911842549 )

          Effective charges (d Force / dE) in cartesian axis

           atom      1   Si 
      Ex  (       -0.00496        0.00000        0.00000 )
      Ey  (        0.00000       -0.00496        0.00000 )
      Ez  (        0.00000        0.00000       -0.00496 )
           atom      2   Si 
      Ex  (       -0.00496        0.00000        0.00000 )
      Ey  (        0.00000       -0.00496        0.00000 )
      Ez  (        0.00000        0.00000       -0.00496 )

          Effective charges (d P / du) in cartesian axis 

           atom      1   Si 
      Px  (       -0.00493        0.00000        0.00000 )
      Py  (        0.00000       -0.00493        0.00000 )
      Pz  (        0.00000        0.00000       -0.00493 )
           atom      2   Si 
      Px  (       -0.00493        0.00000        0.00000 )
      Py  (        0.00000       -0.00493        0.00000 )
      Pz  (        0.00000        0.00000       -0.00493 )

     Diagonalizing the dynamical matrix

     q = (    0.000000000   0.000000000   0.000000000 ) 

 **************************************************************************
     omega( 1) =       0.437450 [THz] =      14.591747 [cm-1]
     omega( 2) =       0.437450 [THz] =      14.591747 [cm-1]
     omega( 3) =       0.437450 [THz] =      14.591747 [cm-1]
     omega( 4) =      14.994107 [THz] =     500.149581 [cm-1]
     omega( 5) =      14.994107 [THz] =     500.149581 [cm-1]
     omega( 6) =      14.994107 [THz] =     500.149581 [cm-1]
 **************************************************************************

     Calculation of q =   -0.2500000   0.2500000  -0.2500000
 
     G-vector sticks info
     --------------------
     sticks:   dense  smooth     PW     G-vecs:    dense   smooth      PW
     Sum         301     301    121                 3383     3383     821
 


     bravais-lattice index     =            2
     lattice parameter (alat)  =      10.3463  a.u.
     unit-cell volume          =     276.8823 (a.u.)^3
     number of atoms/cell      =            2
     number of atomic types    =            1
     number of electrons       =         8.00
     number of Kohn-Sham states=            8
     kinetic-energy cutoff     =      20.0000  Ry
     charge density cutoff     =      80.0000  Ry
     Exchange-correlation      =  SLA  PW   PBE  PBE ( 1 4 3 4 0)
     EXX-fraction              =        0.00

     celldm(1)=  10.346300  celldm(2)=   0.000000  celldm(3)=   0.000000
     celldm(4)=   0.000000  celldm(5)=   0.000000  celldm(6)=   0.000000

     crystal axes: (cart. coord. in units of alat)
               a(1) = (  -0.500000   0.000000   0.500000 )  
               a(2) = (   0.000000   0.500000   0.500000 )  
               a(3) = (  -0.500000   0.500000   0.000000 )  

     reciprocal axes: (cart. coord. in units 2 pi/alat)
               b(1) = ( -1.000000 -1.000000  1.000000 )  
               b(2) = (  1.000000  1.000000  1.000000 )  
               b(3) = ( -1.000000  1.000000 -1.000000 )  


     PseudoPot. # 1 for Si read from file:
     ./tmp/si.save/Si.pbe-rrkj.UPF
     MD5 check sum: cf7ab5690cd9a85b22c4813f7e365554
     Pseudo is Norm-conserving, Zval =  4.0
     Generated by new atomic code, or converted to UPF format
     Using radial grid of  883 points,  3 beta functions with: 
                l(1) =   0
                l(2) =   0
                l(3) =   1

     atomic species   valence    mass     pseudopotential
        Si             4.00    28.08600     Si( 1.00)

     48 Sym.Ops. (with inversion)


   Cartesian axes

     site n.     atom                  positions (alat units)
         1           Si  tau(   1) = (   0.0000000   0.0000000   0.0000000  )
         2           Si  tau(   2) = (  -0.2500000   0.2500000   0.2500000  )

     number of k points=   364

     Number of k-points >= 100: set verbosity='high' to print them.

     Dense  grid:     3383 G-vectors     FFT dimensions: (  24,  24,  24)

     Largest allocated arrays     est. size (Mb)     dimensions
        Kohn-Sham Wavefunctions         0.05 Mb     (    444,    8)
        NL pseudopotentials             0.07 Mb     (    444,   10)
        Each V/rho on FFT grid          0.21 Mb     (  13824)
        Each G-vector array             0.03 Mb     (   3383)
        G-vector shells                 0.00 Mb     (     75)
     Largest temporary arrays     est. size (Mb)     dimensions
        Auxiliary wavefunctions         0.22 Mb     (    444,   32)
        Each subspace H/S matrix        0.02 Mb     (  32,  32)
        Each <psi_i|beta_j> matrix      0.00 Mb     (     10,    8)

     The potential is recalculated from file :
     ./tmp/_ph0/si.save/charge-density.dat

     Starting wfc are    8 atomic wfcs

     total cpu time spent up to now is        0.1 secs

     per-process dynamical memory:     4.1 Mb

     Band Structure Calculation
     Davidson diagonalization with overlap

     ethr =  1.25E-10,  avg # of iterations = 18.3

     total cpu time spent up to now is       35.2 secs

     End of band structure calculation

          k =-0.0833 0.0833 0.0833     band energies (ev):

    -5.6717   5.1311   5.8370   5.8370   8.5571   8.7440   8.7440   9.8449

          k =-0.3333 0.3333-0.1667     band energies (ev):

    -4.7259   1.6575   4.3308   5.3073   8.3691   9.4398   9.7084  12.4079

          k =-0.2500 0.2500-0.0833     band energies (ev):

    -5.2038   3.0838   4.6311   5.6292   8.6488   9.1358   9.4818  11.6016

          k =-0.5000 0.5000-0.3333     band energies (ev):

    -3.5666  -0.5754   4.1431   4.7709   8.0176   9.3732   9.5701  13.9582

          k =-0.4167 0.4167-0.2500     band energies (ev):

    -4.1325   0.3727   4.1721   5.0043   8.1472   9.5323   9.5729  13.3801

          k =-0.6667 0.6667-0.5000     band energies (ev):

    -3.9260   0.0015   4.4348   4.6035   8.0749   9.2500   9.8690  12.9436

          k = 0.4167-0.4167 0.5833     band energies (ev):

    -3.4495  -0.7481   4.2349   4.6322   7.9934   9.2583   9.6787  13.8495

          k = 0.1667-0.1667 0.3333     band energies (ev):

    -5.0600   2.6083   4.9001   5.0705   8.3987   9.1554  10.0110  11.3449

          k = 0.2500-0.2500 0.4167     band energies (ev):

    -4.5361   1.2034   4.6933   4.7248   8.2425   9.2655  10.0485  11.9182

          k = 0.0000 0.0000 0.1667     band energies (ev):

    -5.6419   5.2817   5.5610   5.5610   8.2735   9.1001   9.1001   9.8072

          k = 0.0833-0.0833 0.2500     band energies (ev):

    -5.4355   4.0774   5.2070   5.3868   8.2938   9.1511   9.6262  10.7567

          k =-0.1667 0.1667 0.0000     band energies (ev):

    -5.5241   4.4083   5.1422   5.8592   8.7837   8.8594   8.9302  10.6538

          k =-0.0833 0.4167 0.0833     band energies (ev):

    -4.9670   2.8924   4.4761   4.4915   7.7267   9.8415  10.6255  10.8293

          k =-0.3333 0.6667-0.1667     band energies (ev):

    -3.4635   0.0571   2.8360   3.9080   8.2440  10.1639  10.7537  11.9166

          k =-0.2500 0.5833-0.0833     band energies (ev):

    -4.0737   1.0842   3.1875   4.1122   8.1209   9.7291  10.4913  11.9283

          k =-0.5000 0.8333-0.3333     band energies (ev):

    -3.1127  -0.4474   2.4814   4.0577   8.6080   9.7125  11.7243  12.5916

          k = 0.5833-0.2500 0.7500     band energies (ev):

    -2.9809  -0.6292   2.5952   3.8901   8.3683   9.8947  11.8125  12.1988

          k = 0.3333 0.0000 0.5000     band energies (ev):

    -4.2755   1.3615   2.9664   4.7361   9.1807   9.3052  10.6438  11.2546

          k = 0.4167-0.0833 0.5833     band energies (ev):

    -3.6872   0.4056   2.5579   4.3655   8.9500   9.5743  11.2265  11.6941

          k = 0.1667 0.1667 0.3333     band energies (ev):

    -5.0600   2.6083   4.9001   5.0705   8.3987   9.1554  10.0110  11.3449

          k = 0.2500 0.0833 0.4167     band energies (ev):

    -4.7458   2.0739   3.8702   5.0180   8.5931   9.4401  10.4990  10.8692

          k = 0.0000 0.3333 0.1667     band energies (ev):

    -5.1726   3.2868   4.3926   5.2858   8.3226   9.4583  10.0922  10.8573

          k =-0.0833 0.7500 0.0833     band energies (ev):

    -3.3751   0.2670   3.1516   3.4808   6.9227   7.8899  13.4484  13.5130

          k =-0.3333 1.0000-0.1667     band energies (ev):

    -2.0548  -1.1575   1.8482   3.2782   7.7693  10.1403  12.5570  12.9488

          k = 0.7500-0.0833 0.9167     band energies (ev):

    -2.2026  -1.0488   2.3306   3.0861   7.5375   8.6392  13.0100  14.4530

          k = 0.5000 0.1667 0.6667     band energies (ev):

    -3.1127  -0.4474   2.4814   4.0577   8.6080   9.7125  11.7243  12.5916

          k = 0.5833 0.0833 0.7500     band energies (ev):

    -2.5687  -0.7153   1.8572   3.6202   8.1440  11.0045  11.9778  12.6304

          k = 0.3333 0.3333 0.5000     band energies (ev):

    -3.9260   0.0015   4.4348   4.6035   8.0749   9.2500   9.8690  12.9436

          k = 0.4167 0.2500 0.5833     band energies (ev):

    -3.5782  -0.2595   3.4752   4.4598   8.5558   9.1946  10.4889  12.6840

          k = 0.1667 0.5000 0.3333     band energies (ev):

    -4.1839   0.8033   3.6026   4.6995   8.6208   9.3569  10.5622  11.4989

          k =-0.0833-0.9167 0.0833     band energies (ev):

    -2.2915  -1.0561   2.8872   3.2692   6.8169   7.3730  14.9203  15.0002

          k =-0.3333-0.6667-0.1667     band energies (ev):

    -3.4635   0.0571   2.8360   3.9080   8.2440  10.1639  10.7537  11.9166

          k =-0.2500-0.7500-0.0833     band energies (ev):

    -3.2102   0.0485   2.6442   3.4198   7.7410   9.0054  11.6717  13.4548

          k =-0.5000-0.5000-0.3333     band energies (ev):

    -3.5666  -0.5754   4.1431   4.7709   8.0176   9.3732   9.5701  13.9582

          k =-0.0833-0.5833 0.0833     band energies (ev):

    -4.2751   1.6097   3.6850   3.8959   7.2334   8.7901  11.9342  12.1387

          k =-0.3333-0.3333-0.1667     band energies (ev):

    -4.7259   1.6575   4.3308   5.3073   8.3691   9.4398   9.7084  12.4079

          k =-0.2500 0.2500 0.2500     band energies (ev):

    -4.9786   2.1246   5.2354   5.2354   7.9692   9.4695   9.4695  12.7297

          k =-0.5000 0.5000 0.0000     band energies (ev):

    -3.7630   0.5855   2.3295   4.6807   8.4362  10.7247  11.0621  12.0253

          k =-0.4167 0.4167 0.0833     band energies (ev):

    -4.3122   1.2013   3.1526   5.0678   8.7382   9.9575  10.1241  12.0277

          k =-0.6667 0.6667-0.1667     band energies (ev):

    -2.7913  -0.6967   2.1831   4.0023   7.7173  11.3872  11.5617  12.0636

          k = 0.4167-0.4167 0.9167     band energies (ev):

    -3.1567  -0.2171   2.0692   4.2990   8.0297  11.2581  11.3572  13.0568

          k = 0.1667-0.1667 0.6667     band energies (ev):

    -3.7131   0.6062   3.0700   3.7902   7.4535   9.2436  11.7966  12.1141

          k = 0.2500-0.2500 0.7500     band energies (ev):

    -3.1050  -0.2952   2.5366   3.8271   7.5433  10.4173  11.6261  11.8516

          k = 0.0000 0.0000 0.5000     band energies (ev):

    -4.7021   2.4994   4.1375   4.1375   7.1512   9.1340  11.6582  11.6582

          k =-0.2500 0.5833 0.2500     band energies (ev):

    -3.8964   0.4098   3.6031   4.1931   8.0104  10.1780  10.8440  11.0083

          k =-0.5000 0.8333 0.0000     band energies (ev):

    -2.3258  -0.8310   1.8879   2.9866   9.3095  10.4345  10.9361  12.1554

          k = 0.5833-0.2500 1.0833     band energies (ev):

    -2.9140  -0.3317   2.1676   3.4200   9.2104   9.7334  10.6979  13.3777

          k = 0.3333 0.0000 0.8333     band energies (ev):

    -2.6086  -0.5617   2.3139   2.9178   8.6724   9.0822  11.3044  14.1796

          k = 0.4167-0.0833 0.9167     band energies (ev):

    -2.0994  -1.0566   2.0093   2.7678   9.0129  10.2616  11.0310  12.4029

          k = 0.1667 0.1667 0.6667     band energies (ev):

    -3.7131   0.6062   3.0700   3.7902   7.4535   9.2436  11.7966  12.1141

          k =-0.2500-1.0833 0.2500     band energies (ev):

    -2.3063  -0.9617   1.8854   3.6361   7.2731  10.1333  13.0016  13.1741

          k =-0.5000-0.8333 0.0000     band energies (ev):

    -2.3258  -0.8310   1.8879   2.9866   9.3095  10.4345  10.9361  12.1554

          k =-0.4167 0.4167 0.4167     band energies (ev):

    -3.8105  -0.3554   4.8521   4.8521   7.5402   9.3847   9.3847  13.7666

          k =-0.6667 0.6667 0.1667     band energies (ev):

    -2.7913  -0.6967   2.1831   4.0023   7.7173  11.3872  11.5617  12.0636

          k = 0.4167-0.4167 1.2500     band energies (ev):

    -3.2181  -0.6548   3.0590   4.4228   8.1755  10.0084  10.3631  13.8696

          k = 0.1667-0.1667 1.0000     band energies (ev):

    -1.8494  -1.4498   2.2400   3.3833   6.9745   8.5428  14.3776  14.8579

          k = 0.0833 0.0833 0.0833     band energies (ev):

    -5.6717   5.1311   5.8370   5.8370   8.5571   8.7440   8.7440   9.8449

          k =-0.1667 0.3333-0.1667     band energies (ev):

    -5.0600   2.6083   4.9001   5.0705   8.3987   9.1554  10.0110  11.3449

          k = 0.0833-0.0833 0.0833     band energies (ev):

    -5.6717   5.1311   5.8370   5.8370   8.5571   8.7440   8.7440   9.8449

          k =-0.1667 0.1667-0.1667     band energies (ev):

    -5.4074   3.6387   5.5384   5.5384   8.2895   9.1710   9.1710  11.2690

          k =-0.0833 0.0833-0.0833     band energies (ev):

    -5.6717   5.1311   5.8370   5.8370   8.5571   8.7440   8.7440   9.8449

          k =-0.3333 0.3333-0.3333     band energies (ev):

    -4.4149   0.7479   4.9985   4.9985   7.7065   9.4855   9.4855  13.7601

          k = 0.2500-0.0833-0.2500     band energies (ev):

    -5.2038   3.0838   4.6311   5.6292   8.6488   9.1358   9.4818  11.6016

          k = 0.0000 0.1667-0.5000     band energies (ev):

    -4.5942   2.1099   3.7134   4.3918   7.7918   9.5111  10.7440  11.5426

          k = 0.2500-0.0833 0.2500     band energies (ev):

    -5.2038   3.0838   4.6311   5.6292   8.6488   9.1358   9.4818  11.6016

          k = 0.0000 0.1667 0.0000     band energies (ev):

    -5.6419   5.2817   5.5610   5.5610   8.2735   9.1001   9.1001   9.8072

          k = 0.2500-0.2500-0.0833     band energies (ev):

    -5.2038   3.0838   4.6311   5.6292   8.6488   9.1358   9.4818  11.6016

          k = 0.0000 0.0000-0.3333     band energies (ev):

    -5.2871   3.9529   4.8188   4.8188   7.7081  10.2091  10.2744  10.2744

          k =-0.0833-0.2500-0.2500     band energies (ev):

    -5.2038   3.0838   4.6311   5.6292   8.6488   9.1358   9.4818  11.6016

          k =-0.3333 0.0000-0.5000     band energies (ev):

    -4.2755   1.3615   2.9664   4.7361   9.1807   9.3052  10.6438  11.2546

          k =-0.2500 0.2500 0.0833     band energies (ev):

    -5.2038   3.0838   4.6311   5.6292   8.6488   9.1358   9.4818  11.6016

          k =-0.5000 0.5000-0.1667     band energies (ev):

    -3.7032   0.0834   3.0066   4.7097   8.4256  10.0681  10.1944  13.1702

          k = 0.4167-0.2500-0.4167     band energies (ev):

    -4.1325   0.3727   4.1721   5.0043   8.1472   9.5323   9.5729  13.3801

          k = 0.1667 0.0000-0.6667     band energies (ev):

    -3.8016   0.8652   3.2149   3.6301   7.4076   8.4959  11.9616  13.0881

          k = 0.4167-0.2500 0.4167     band energies (ev):

    -4.1325   0.3727   4.1721   5.0043   8.1472   9.5323   9.5729  13.3801

          k = 0.1667 0.0000 0.1667     band energies (ev):

    -5.5241   4.4083   5.1422   5.8592   8.7837   8.8594   8.9302  10.6538

          k = 0.4167-0.4167-0.2500     band energies (ev):

    -4.1325   0.3727   4.1721   5.0043   8.1472   9.5323   9.5729  13.3801

          k = 0.1667-0.1667-0.5000     band energies (ev):

    -4.4898   1.6144   4.0330   4.2768   7.9634   9.9993  10.4840  11.0069

          k =-0.2500-0.4167-0.4167     band energies (ev):

    -4.1325   0.3727   4.1721   5.0043   8.1472   9.5323   9.5729  13.3801

          k =-0.5000-0.1667-0.6667     band energies (ev):

    -3.1127  -0.4474   2.4814   4.0577   8.6080   9.7125  11.7243  12.5916

          k =-0.4167 0.4167 0.2500     band energies (ev):

    -4.1325   0.3727   4.1721   5.0043   8.1472   9.5323   9.5729  13.3801

          k =-0.6667 0.6667 0.0000     band energies (ev):

    -2.5733  -0.6808   1.6892   3.9176   7.5902  11.7562  12.3787  12.9444

          k =-0.4167 0.5833 0.4167     band energies (ev):

    -3.4495  -0.7481   4.2349   4.6322   7.9934   9.2583   9.6787  13.8495

          k =-0.6667 0.8333 0.1667     band energies (ev):

    -2.6366  -0.6475   2.1374   3.4272   7.8944  10.2736  11.3828  13.3863

          k =-0.4167 0.5833-0.4167     band energies (ev):

    -3.4495  -0.7481   4.2349   4.6322   7.9934   9.2583   9.6787  13.8495

          k =-0.6667 0.8333-0.6667     band energies (ev):

    -4.7259   1.6575   4.3308   5.3073   8.3691   9.4398   9.7084  12.4079

          k =-0.4167 0.4167 0.5833     band energies (ev):

    -3.4495  -0.7481   4.2349   4.6322   7.9934   9.2583   9.6787  13.8495

          k =-0.6667 0.6667 0.3333     band energies (ev):

    -3.3288  -0.4999   3.2667   4.2442   8.0395  10.0487  10.5840  12.3431

          k = 0.5833 0.4167 0.4167     band energies (ev):

    -3.4495  -0.7481   4.2349   4.6322   7.9934   9.2583   9.6787  13.8495

          k = 0.3333 0.6667 0.1667     band energies (ev):

    -3.4635   0.0571   2.8360   3.9080   8.2440  10.1639  10.7537  11.9166

          k = 0.4167-0.4167-0.5833     band energies (ev):

    -3.4495  -0.7481   4.2349   4.6322   7.9934   9.2583   9.6787  13.8495

          k = 0.1667-0.1667-0.8333     band energies (ev):

    -2.7612  -0.4841   2.4470   3.4864   7.0998   8.7159  13.3377  13.3479

          k =-0.2500 0.4167 0.2500     band energies (ev):

    -4.5361   1.2034   4.6933   4.7248   8.2425   9.2655  10.0485  11.9182

          k =-0.5000 0.6667 0.0000     band energies (ev):

    -3.0922  -0.1392   1.9426   3.9559   8.5228  10.5901  11.4395  12.7447

          k =-0.2500 0.4167-0.2500     band energies (ev):

    -4.5361   1.2034   4.6933   4.7248   8.2425   9.2655  10.0485  11.9182

          k =-0.5000 0.6667-0.5000     band energies (ev):

    -3.5666  -0.5754   4.1431   4.7709   8.0176   9.3732   9.5701  13.9582

          k =-0.2500 0.2500 0.4167     band energies (ev):

    -4.5361   1.2034   4.6933   4.7248   8.2425   9.2655  10.0485  11.9182

          k =-0.5000 0.5000 0.1667     band energies (ev):

    -3.7032   0.0834   3.0066   4.7097   8.4256  10.0681  10.1944  13.1702

          k = 0.4167 0.2500 0.2500     band energies (ev):

    -4.5361   1.2034   4.6933   4.7248   8.2425   9.2655  10.0485  11.9182

          k = 0.1667 0.5000 0.0000     band energies (ev):

    -4.5942   2.1099   3.7134   4.3918   7.7918   9.5111  10.7440  11.5426

          k = 0.2500-0.2500-0.4167     band energies (ev):

    -4.5361   1.2034   4.6933   4.7248   8.2425   9.2655  10.0485  11.9182

          k = 0.0000 0.0000-0.6667     band energies (ev):

    -3.8978   1.0359   3.6208   3.6208   6.7617   8.0233  13.1368  13.1368

          k =-0.0833 0.2500 0.0833     band energies (ev):

    -5.4355   4.0774   5.2070   5.3868   8.2938   9.1511   9.6262  10.7567

          k =-0.3333 0.5000-0.1667     band energies (ev):

    -4.1839   0.8033   3.6026   4.6995   8.6208   9.3569  10.5622  11.4989

          k =-0.0833 0.2500-0.0833     band energies (ev):

    -5.4355   4.0774   5.2070   5.3868   8.2938   9.1511   9.6262  10.7567

          k =-0.3333 0.5000-0.3333     band energies (ev):

    -3.9260   0.0015   4.4348   4.6035   8.0749   9.2500   9.8690  12.9436

          k =-0.0833 0.0833 0.2500     band energies (ev):

    -5.4355   4.0774   5.2070   5.3868   8.2938   9.1511   9.6262  10.7567

          k =-0.3333 0.3333 0.0000     band energies (ev):

    -4.8321   2.3165   3.6356   5.4223   8.9743   9.5162   9.7931  11.5690

          k = 0.2500 0.0833 0.0833     band energies (ev):

    -5.4355   4.0774   5.2070   5.3868   8.2938   9.1511   9.6262  10.7567

          k = 0.0000 0.3333-0.1667     band energies (ev):

    -5.1726   3.2868   4.3926   5.2858   8.3226   9.4583  10.0922  10.8573

          k = 0.0833-0.0833-0.2500     band energies (ev):

    -5.4355   4.0774   5.2070   5.3868   8.2938   9.1511   9.6262  10.7567

          k =-0.1667 0.1667-0.5000     band energies (ev):

    -4.4898   1.6144   4.0330   4.2768   7.9634   9.9993  10.4840  11.0069

          k = 0.0833 0.0833 0.4167     band energies (ev):

    -4.9670   2.8924   4.4761   4.4915   7.7267   9.8415  10.6255  10.8293

          k =-0.1667 0.3333 0.1667     band energies (ev):

    -5.0600   2.6083   4.9001   5.0705   8.3987   9.1554  10.0110  11.3449

          k = 0.0833-0.4167 0.0833     band energies (ev):

    -4.9670   2.8924   4.4761   4.4915   7.7267   9.8415  10.6255  10.8293

          k =-0.1667-0.1667-0.1667     band energies (ev):

    -5.4074   3.6387   5.5384   5.5384   8.2895   9.1710   9.1710  11.2690

          k =-0.0833-0.4167-0.0833     band energies (ev):

    -4.9670   2.8924   4.4761   4.4915   7.7267   9.8415  10.6255  10.8293

          k =-0.3333-0.1667-0.3333     band energies (ev):

    -4.7259   1.6575   4.3308   5.3073   8.3691   9.4398   9.7084  12.4079

          k =-0.0833 0.4167-0.0833     band energies (ev):

    -4.9670   2.8924   4.4761   4.4915   7.7267   9.8415  10.6255  10.8293

          k =-0.3333 0.6667-0.3333     band energies (ev):

    -3.3288  -0.4999   3.2667   4.2442   8.0395  10.0487  10.5840  12.3431

          k = 0.0833-0.0833-0.4167     band energies (ev):

    -4.9670   2.8924   4.4761   4.4915   7.7267   9.8415  10.6255  10.8293

          k =-0.1667 0.1667-0.6667     band energies (ev):

    -3.7131   0.6062   3.0700   3.7902   7.4535   9.2436  11.7966  12.1141

          k = 0.2500-0.0833-0.5833     band energies (ev):

    -4.0737   1.0842   3.1875   4.1122   8.1209   9.7291  10.4913  11.9283

          k = 0.0000 0.1667-0.8333     band energies (ev):

    -2.8160  -0.4198   2.9373   3.1288   7.2462   7.7616  13.3193  14.6634

          k = 0.2500-0.0833 0.5833     band energies (ev):

    -4.0737   1.0842   3.1875   4.1122   8.1209   9.7291  10.4913  11.9283

          k = 0.0000 0.1667 0.3333     band energies (ev):

    -5.1726   3.2868   4.3926   5.2858   8.3226   9.4583  10.0922  10.8573

          k = 0.2500-0.5833-0.0833     band energies (ev):

    -4.0737   1.0842   3.1875   4.1122   8.1209   9.7291  10.4913  11.9283

          k = 0.0000-0.3333-0.3333     band energies (ev):

    -4.8321   2.3165   3.6356   5.4223   8.9743   9.5162   9.7931  11.5690

          k =-0.0833-0.5833-0.2500     band energies (ev):

    -4.0737   1.0842   3.1875   4.1122   8.1209   9.7291  10.4913  11.9283

          k =-0.3333-0.3333-0.5000     band energies (ev):

    -3.9260   0.0015   4.4348   4.6035   8.0749   9.2500   9.8690  12.9436

          k = 0.0833-0.5833-0.2500     band energies (ev):

    -4.0737   1.0842   3.1875   4.1122   8.1209   9.7291  10.4913  11.9283

          k =-0.1667-0.3333-0.5000     band energies (ev):

    -4.1839   0.8033   3.6026   4.6995   8.6208   9.3569  10.5622  11.4989

          k =-0.2500 0.5833 0.0833     band energies (ev):

    -4.0737   1.0842   3.1875   4.1122   8.1209   9.7291  10.4913  11.9283

          k =-0.5000 0.8333-0.1667     band energies (ev):

    -2.5639  -0.7484   2.0756   3.2945   9.3525   9.5095  12.0363  12.4174

          k = 0.2500 0.0833-0.5833     band energies (ev):

    -4.0737   1.0842   3.1875   4.1122   8.1209   9.7291  10.4913  11.9283

          k = 0.0000 0.3333-0.8333     band energies (ev):

    -2.6086  -0.5617   2.3139   2.9178   8.6724   9.0822  11.3044  14.1796

          k =-0.5833 0.7500 0.2500     band energies (ev):

    -2.9809  -0.6292   2.5952   3.8901   8.3683   9.8947  11.8125  12.1988

          k =-0.8333 1.0000 0.0000     band energies (ev):

    -1.6712  -1.6712   2.9027   2.9027   7.3528   7.3528  14.7616  14.7616

          k =-0.5833 0.7500-0.2500     band energies (ev):

    -2.9809  -0.6292   2.5952   3.8901   8.3683   9.8947  11.8125  12.1988

          k =-0.8333 1.0000-0.5000     band energies (ev):

    -4.5942   2.1099   3.7134   4.3918   7.7918   9.5111  10.7440  11.5426

          k =-0.5833 0.2500 0.7500     band energies (ev):

    -2.9809  -0.6292   2.5952   3.8901   8.3683   9.8947  11.8125  12.1988

          k =-0.8333 0.5000 0.5000     band energies (ev):

    -3.7032   0.0834   3.0066   4.7097   8.4256  10.0681  10.1944  13.1702

          k = 0.7500 0.2500 0.5833     band energies (ev):

    -2.9809  -0.6292   2.5952   3.8901   8.3683   9.8947  11.8125  12.1988

          k = 0.5000 0.5000 0.3333     band energies (ev):

    -3.5666  -0.5754   4.1431   4.7709   8.0176   9.3732   9.5701  13.9582

          k =-0.7500 0.2500 0.5833     band energies (ev):

    -2.9809  -0.6292   2.5952   3.8901   8.3683   9.8947  11.8125  12.1988

          k =-1.0000 0.5000 0.3333     band energies (ev):

    -3.0922  -0.1392   1.9426   3.9559   8.5228  10.5901  11.4395  12.7447

          k = 0.5833-0.2500-0.7500     band energies (ev):

    -2.9809  -0.6292   2.5952   3.8901   8.3683   9.8947  11.8125  12.1988

          k = 0.3333 0.0000-1.0000     band energies (ev):

    -1.5935  -1.5935   2.4358   2.4358   8.7442   8.7442  12.6642  12.6642

          k =-0.5833-0.7500 0.2500     band energies (ev):

    -2.9809  -0.6292   2.5952   3.8901   8.3683   9.8947  11.8125  12.1988

          k =-0.8333-0.5000 0.0000     band energies (ev):

    -2.3258  -0.8310   1.8879   2.9866   9.3095  10.4345  10.9361  12.1554

          k =-0.4167 0.5833 0.0833     band energies (ev):

    -3.6872   0.4056   2.5579   4.3655   8.9500   9.5743  11.2265  11.6941

          k =-0.6667 0.8333-0.1667     band energies (ev):

    -2.6366  -0.6475   2.1374   3.4272   7.8944  10.2736  11.3828  13.3863

          k =-0.4167 0.5833-0.0833     band energies (ev):

    -3.6872   0.4056   2.5579   4.3655   8.9500   9.5743  11.2265  11.6941

          k =-0.6667 0.8333-0.3333     band energies (ev):

    -3.4635   0.0571   2.8360   3.9080   8.2440  10.1639  10.7537  11.9166

          k =-0.4167 0.0833 0.5833     band energies (ev):

    -3.6872   0.4056   2.5579   4.3655   8.9500   9.5743  11.2265  11.6941

          k =-0.6667 0.3333 0.3333     band energies (ev):

    -3.3288  -0.4999   3.2667   4.2442   8.0395  10.0487  10.5840  12.3431

          k = 0.5833 0.0833 0.4167     band energies (ev):

    -3.6872   0.4056   2.5579   4.3655   8.9500   9.5743  11.2265  11.6941

          k = 0.3333 0.3333 0.1667     band energies (ev):

    -4.7259   1.6575   4.3308   5.3073   8.3691   9.4398   9.7084  12.4079

          k =-0.5833 0.0833 0.4167     band energies (ev):

    -3.6872   0.4056   2.5579   4.3655   8.9500   9.5743  11.2265  11.6941

          k =-0.8333 0.3333 0.1667     band energies (ev):

    -2.6366  -0.6475   2.1374   3.4272   7.8944  10.2736  11.3828  13.3863

          k = 0.4167-0.0833-0.5833     band energies (ev):

    -3.6872   0.4056   2.5579   4.3655   8.9500   9.5743  11.2265  11.6941

          k = 0.1667 0.1667-0.8333     band energies (ev):

    -2.7612  -0.4841   2.4470   3.4864   7.0998   8.7159  13.3377  13.3479

          k =-0.4167-0.5833 0.0833     band energies (ev):

    -3.6872   0.4056   2.5579   4.3655   8.9500   9.5743  11.2265  11.6941

          k =-0.6667-0.3333-0.1667     band energies (ev):

    -3.4635   0.0571   2.8360   3.9080   8.2440  10.1639  10.7537  11.9166

          k =-0.2500 0.4167-0.0833     band energies (ev):

    -4.7458   2.0739   3.8702   5.0180   8.5931   9.4401  10.4990  10.8692

          k =-0.5000 0.6667-0.3333     band energies (ev):

    -3.2501  -0.7438   3.4392   4.3707   8.5297   9.1193  10.4462  13.9647

          k =-0.2500 0.4167 0.0833     band energies (ev):

    -4.7458   2.0739   3.8702   5.0180   8.5931   9.4401  10.4990  10.8692

          k =-0.5000 0.6667-0.1667     band energies (ev):

    -3.1127  -0.4474   2.4814   4.0577   8.6080   9.7125  11.7243  12.5916

          k =-0.2500-0.0833 0.4167     band energies (ev):

    -4.7458   2.0739   3.8702   5.0180   8.5931   9.4401  10.4990  10.8692

          k =-0.5000 0.1667 0.1667     band energies (ev):

    -4.4898   1.6144   4.0330   4.2768   7.9634   9.9993  10.4840  11.0069

          k = 0.4167-0.0833 0.2500     band energies (ev):

    -4.7458   2.0739   3.8702   5.0180   8.5931   9.4401  10.4990  10.8692

          k = 0.1667 0.1667 0.0000     band energies (ev):

    -5.5241   4.4083   5.1422   5.8592   8.7837   8.8594   8.9302  10.6538

          k =-0.4167-0.0833 0.2500     band energies (ev):

    -4.7458   2.0739   3.8702   5.0180   8.5931   9.4401  10.4990  10.8692

          k =-0.6667 0.1667 0.0000     band energies (ev):

    -3.8016   0.8652   3.2149   3.6301   7.4076   8.4959  11.9616  13.0881

          k = 0.2500 0.0833-0.4167     band energies (ev):

    -4.7458   2.0739   3.8702   5.0180   8.5931   9.4401  10.4990  10.8692

          k = 0.0000 0.3333-0.6667     band energies (ev):

    -3.5225   0.4198   2.5071   3.7464   8.8340   9.7109  10.1647  12.9505

          k =-0.2500-0.4167-0.0833     band energies (ev):

    -4.7458   2.0739   3.8702   5.0180   8.5931   9.4401  10.4990  10.8692

          k =-0.5000-0.1667-0.3333     band energies (ev):

    -4.1839   0.8033   3.6026   4.6995   8.6208   9.3569  10.5622  11.4989

          k = 0.0833 0.0833 0.7500     band energies (ev):

    -3.3751   0.2670   3.1516   3.4808   6.9227   7.8899  13.4484  13.5130

          k =-0.1667 0.3333 0.5000     band energies (ev):

    -4.1839   0.8033   3.6026   4.6995   8.6208   9.3569  10.5622  11.4989

          k = 0.0833-0.7500 0.0833     band energies (ev):

    -3.3751   0.2670   3.1516   3.4808   6.9227   7.8899  13.4484  13.5130

          k =-0.1667-0.5000-0.1667     band energies (ev):

    -4.4898   1.6144   4.0330   4.2768   7.9634   9.9993  10.4840  11.0069

          k =-0.0833-0.7500-0.0833     band energies (ev):

    -3.3751   0.2670   3.1516   3.4808   6.9227   7.8899  13.4484  13.5130

          k =-0.3333-0.5000-0.3333     band energies (ev):

    -3.9260   0.0015   4.4348   4.6035   8.0749   9.2500   9.8690  12.9436

          k =-0.0833 0.7500-0.0833     band energies (ev):

    -3.3751   0.2670   3.1516   3.4808   6.9227   7.8899  13.4484  13.5130

          k =-0.3333 1.0000-0.3333     band energies (ev):

    -2.5733  -0.6808   1.6892   3.9176   7.5902  11.7562  12.3787  12.9444

          k = 0.0833-0.0833-0.7500     band energies (ev):

    -3.3751   0.2670   3.1516   3.4808   6.9227   7.8899  13.4484  13.5130

          k =-0.1667 0.1667-1.0000     band energies (ev):

    -1.8494  -1.4498   2.2400   3.3833   6.9745   8.5428  14.3776  14.8579

          k =-0.7500 0.9167 0.0833     band energies (ev):

    -2.2026  -1.0488   2.3306   3.0861   7.5375   8.6392  13.0100  14.4530

          k =-1.0000 1.1667-0.1667     band energies (ev):

    -2.8160  -0.4198   2.9373   3.1288   7.2462   7.7616  13.3193  14.6634

          k =-0.7500 0.9167-0.0833     band energies (ev):

    -2.2026  -1.0488   2.3306   3.0861   7.5375   8.6392  13.0100  14.4530

          k =-1.0000 1.1667-0.3333     band energies (ev):

    -3.8016   0.8652   3.2149   3.6301   7.4076   8.4959  11.9616  13.0881

          k =-0.7500 0.0833 0.9167     band energies (ev):

    -2.2026  -1.0488   2.3306   3.0861   7.5375   8.6392  13.0100  14.4530

          k =-1.0000 0.3333 0.6667     band energies (ev):

    -3.5225   0.4198   2.5071   3.7464   8.8340   9.7109  10.1647  12.9505

          k = 0.9167 0.0833 0.7500     band energies (ev):

    -2.2026  -1.0488   2.3306   3.0861   7.5375   8.6392  13.0100  14.4530

          k = 0.6667 0.3333 0.5000     band energies (ev):

    -3.2501  -0.7438   3.4392   4.3707   8.5297   9.1193  10.4462  13.9647

          k =-0.9167 0.0833 0.7500     band energies (ev):

    -2.2026  -1.0488   2.3306   3.0861   7.5375   8.6392  13.0100  14.4530

          k =-1.1667 0.3333 0.5000     band energies (ev):

    -3.1127  -0.4474   2.4814   4.0577   8.6080   9.7125  11.7243  12.5916

          k = 0.7500-0.0833-0.9167     band energies (ev):

    -2.2026  -1.0488   2.3306   3.0861   7.5375   8.6392  13.0100  14.4530

          k = 0.5000 0.1667-1.1667     band energies (ev):

    -2.5639  -0.7484   2.0756   3.2945   9.3525   9.5095  12.0363  12.4174

          k =-0.7500-0.9167 0.0833     band energies (ev):

    -2.2026  -1.0488   2.3306   3.0861   7.5375   8.6392  13.0100  14.4530

          k =-1.0000-0.6667-0.1667     band energies (ev):

    -2.6086  -0.5617   2.3139   2.9178   8.6724   9.0822  11.3044  14.1796

          k =-0.5833 0.7500-0.0833     band energies (ev):

    -2.5687  -0.7153   1.8572   3.6202   8.1440  11.0045  11.9778  12.6304

          k =-0.8333 1.0000-0.3333     band energies (ev):

    -3.8016   0.8652   3.2149   3.6301   7.4076   8.4959  11.9616  13.0881

          k =-0.5833 0.7500 0.0833     band energies (ev):

    -2.5687  -0.7153   1.8572   3.6202   8.1440  11.0045  11.9778  12.6304

          k =-0.8333 1.0000-0.1667     band energies (ev):

    -2.8160  -0.4198   2.9373   3.1288   7.2462   7.7616  13.3193  14.6634

          k =-0.5833-0.0833 0.7500     band energies (ev):

    -2.5687  -0.7153   1.8572   3.6202   8.1440  11.0045  11.9778  12.6304

          k =-0.8333 0.1667 0.5000     band energies (ev):

    -2.5639  -0.7484   2.0756   3.2945   9.3525   9.5095  12.0363  12.4174

          k = 0.7500-0.0833 0.5833     band energies (ev):

    -2.5687  -0.7153   1.8572   3.6202   8.1440  11.0045  11.9778  12.6304

          k = 0.5000 0.1667 0.3333     band energies (ev):

    -4.1839   0.8033   3.6026   4.6995   8.6208   9.3569  10.5622  11.4989

          k =-0.7500-0.0833 0.5833     band energies (ev):

    -2.5687  -0.7153   1.8572   3.6202   8.1440  11.0045  11.9778  12.6304

          k =-1.0000 0.1667 0.3333     band energies (ev):

    -2.0548  -1.1575   1.8482   3.2782   7.7693  10.1403  12.5570  12.9488

          k = 0.5833 0.0833-0.7500     band energies (ev):

    -2.5687  -0.7153   1.8572   3.6202   8.1440  11.0045  11.9778  12.6304

          k = 0.3333 0.3333-1.0000     band energies (ev):

    -2.5733  -0.6808   1.6892   3.9176   7.5902  11.7562  12.3787  12.9444

          k =-0.5833-0.7500-0.0833     band energies (ev):

    -2.5687  -0.7153   1.8572   3.6202   8.1440  11.0045  11.9778  12.6304

          k =-0.8333-0.5000-0.3333     band energies (ev):

    -3.1127  -0.4474   2.4814   4.0577   8.6080   9.7125  11.7243  12.5916

          k =-0.4167 0.5833-0.2500     band energies (ev):

    -3.5782  -0.2595   3.4752   4.4598   8.5558   9.1946  10.4889  12.6840

          k =-0.6667 0.8333-0.5000     band energies (ev):

    -4.1839   0.8033   3.6026   4.6995   8.6208   9.3569  10.5622  11.4989

          k =-0.4167 0.5833 0.2500     band energies (ev):

    -3.5782  -0.2595   3.4752   4.4598   8.5558   9.1946  10.4889  12.6840

          k =-0.6667 0.8333 0.0000     band energies (ev):

    -2.0548  -1.1575   1.8482   3.2782   7.7693  10.1403  12.5570  12.9488

          k =-0.4167-0.2500 0.5833     band energies (ev):

    -3.5782  -0.2595   3.4752   4.4598   8.5558   9.1946  10.4889  12.6840

          k =-0.6667 0.0000 0.3333     band energies (ev):

    -3.5225   0.4198   2.5071   3.7464   8.8340   9.7109  10.1647  12.9505

          k = 0.5833-0.2500 0.4167     band energies (ev):

    -3.5782  -0.2595   3.4752   4.4598   8.5558   9.1946  10.4889  12.6840

          k = 0.3333 0.0000 0.1667     band energies (ev):

    -5.1726   3.2868   4.3926   5.2858   8.3226   9.4583  10.0922  10.8573

          k =-0.5833-0.2500 0.4167     band energies (ev):

    -3.5782  -0.2595   3.4752   4.4598   8.5558   9.1946  10.4889  12.6840

          k =-0.8333 0.0000 0.1667     band energies (ev):

    -2.8160  -0.4198   2.9373   3.1288   7.2462   7.7616  13.3193  14.6634

          k = 0.4167 0.2500-0.5833     band energies (ev):

    -3.5782  -0.2595   3.4752   4.4598   8.5558   9.1946  10.4889  12.6840

          k = 0.1667 0.5000-0.8333     band energies (ev):

    -2.5639  -0.7484   2.0756   3.2945   9.3525   9.5095  12.0363  12.4174

          k =-0.4167-0.5833-0.2500     band energies (ev):

    -3.5782  -0.2595   3.4752   4.4598   8.5558   9.1946  10.4889  12.6840

          k =-0.6667-0.3333-0.5000     band energies (ev):

    -3.2501  -0.7438   3.4392   4.3707   8.5297   9.1193  10.4462  13.9647

          k = 0.0833 0.0833-0.9167     band energies (ev):

    -2.2915  -1.0561   2.8872   3.2692   6.8169   7.3730  14.9203  15.0002

          k =-0.1667 0.3333-1.1667     band energies (ev):

    -2.6366  -0.6475   2.1374   3.4272   7.8944  10.2736  11.3828  13.3863

          k = 0.0833 0.9167 0.0833     band energies (ev):

    -2.2915  -1.0561   2.8872   3.2692   6.8169   7.3730  14.9203  15.0002

          k =-0.1667 1.1667-0.1667     band energies (ev):

    -2.7612  -0.4841   2.4470   3.4864   7.0998   8.7159  13.3377  13.3479

          k =-0.0833 0.9167-0.0833     band energies (ev):

    -2.2915  -1.0561   2.8872   3.2692   6.8169   7.3730  14.9203  15.0002

          k =-0.3333 1.1667-0.3333     band energies (ev):

    -2.7913  -0.6967   2.1831   4.0023   7.7173  11.3872  11.5617  12.0636

          k =-0.0833-0.9167-0.0833     band energies (ev):

    -2.2915  -1.0561   2.8872   3.2692   6.8169   7.3730  14.9203  15.0002

          k =-0.3333-0.6667-0.3333     band energies (ev):

    -3.3288  -0.4999   3.2667   4.2442   8.0395  10.0487  10.5840  12.3431

          k = 0.0833-0.0833 0.9167     band energies (ev):

    -2.2915  -1.0561   2.8872   3.2692   6.8169   7.3730  14.9203  15.0002

          k =-0.1667 0.1667 0.6667     band energies (ev):

    -3.7131   0.6062   3.0700   3.7902   7.4535   9.2436  11.7966  12.1141

          k = 0.2500-0.0833 0.7500     band energies (ev):

    -3.2102   0.0485   2.6442   3.4198   7.7410   9.0054  11.6717  13.4548

          k = 0.0000 0.1667 0.5000     band energies (ev):

    -4.5942   2.1099   3.7134   4.3918   7.7918   9.5111  10.7440  11.5426

          k = 0.2500-0.0833-0.7500     band energies (ev):

    -3.2102   0.0485   2.6442   3.4198   7.7410   9.0054  11.6717  13.4548

          k = 0.0000 0.1667-1.0000     band energies (ev):

    -1.6712  -1.6712   2.9027   2.9027   7.3528   7.3528  14.7616  14.7616

          k = 0.2500 0.7500-0.0833     band energies (ev):

    -3.2102   0.0485   2.6442   3.4198   7.7410   9.0054  11.6717  13.4548

          k = 0.0000 1.0000-0.3333     band energies (ev):

    -1.5935  -1.5935   2.4358   2.4358   8.7442   8.7442  12.6642  12.6642

          k =-0.0833 0.7500-0.2500     band energies (ev):

    -3.2102   0.0485   2.6442   3.4198   7.7410   9.0054  11.6717  13.4548

          k =-0.3333 1.0000-0.5000     band energies (ev):

    -3.0922  -0.1392   1.9426   3.9559   8.5228  10.5901  11.4395  12.7447

          k = 0.0833 0.7500-0.2500     band energies (ev):

    -3.2102   0.0485   2.6442   3.4198   7.7410   9.0054  11.6717  13.4548

          k =-0.1667 1.0000-0.5000     band energies (ev):

    -2.3258  -0.8310   1.8879   2.9866   9.3095  10.4345  10.9361  12.1554

          k =-0.2500-0.7500 0.0833     band energies (ev):

    -3.2102   0.0485   2.6442   3.4198   7.7410   9.0054  11.6717  13.4548

          k =-0.5000-0.5000-0.1667     band energies (ev):

    -3.7032   0.0834   3.0066   4.7097   8.4256  10.0681  10.1944  13.1702

          k = 0.2500 0.0833 0.7500     band energies (ev):

    -3.2102   0.0485   2.6442   3.4198   7.7410   9.0054  11.6717  13.4548

          k = 0.0000 0.3333 0.5000     band energies (ev):

    -4.2755   1.3615   2.9664   4.7361   9.1807   9.3052  10.6438  11.2546

          k = 0.0833 0.0833-0.5833     band energies (ev):

    -4.2751   1.6097   3.6850   3.8959   7.2334   8.7901  11.9342  12.1387

          k =-0.1667 0.3333-0.8333     band energies (ev):

    -2.6366  -0.6475   2.1374   3.4272   7.8944  10.2736  11.3828  13.3863

          k = 0.0833 0.5833 0.0833     band energies (ev):

    -4.2751   1.6097   3.6850   3.8959   7.2334   8.7901  11.9342  12.1387

          k =-0.1667 0.8333-0.1667     band energies (ev):

    -2.7612  -0.4841   2.4470   3.4864   7.0998   8.7159  13.3377  13.3479

          k =-0.0833 0.5833-0.0833     band energies (ev):

    -4.2751   1.6097   3.6850   3.8959   7.2334   8.7901  11.9342  12.1387

          k =-0.3333 0.8333-0.3333     band energies (ev):

    -2.7913  -0.6967   2.1831   4.0023   7.7173  11.3872  11.5617  12.0636

          k =-0.0833-0.5833-0.0833     band energies (ev):

    -4.2751   1.6097   3.6850   3.8959   7.2334   8.7901  11.9342  12.1387

          k =-0.3333-0.3333-0.3333     band energies (ev):

    -4.4149   0.7479   4.9985   4.9985   7.7065   9.4855   9.4855  13.7601

          k = 0.0833-0.0833 0.5833     band energies (ev):

    -4.2751   1.6097   3.6850   3.8959   7.2334   8.7901  11.9342  12.1387

          k =-0.1667 0.1667 0.3333     band energies (ev):

    -5.0600   2.6083   4.9001   5.0705   8.3987   9.1554  10.0110  11.3449

          k = 0.2500 0.2500 0.2500     band energies (ev):

    -4.9786   2.1246   5.2354   5.2354   7.9692   9.4695   9.4695  12.7297

          k = 0.0000 0.5000 0.0000     band energies (ev):

    -4.7021   2.4994   4.1375   4.1375   7.1512   9.1340  11.6582  11.6582

          k = 0.2500-0.2500 0.2500     band energies (ev):

    -4.9786   2.1246   5.2354   5.2354   7.9692   9.4695   9.4695  12.7297

          k = 0.0000 0.0000 0.0000     band energies (ev):

    -5.7608   5.9763   5.9763   5.9763   8.5385   8.5385   8.5385   9.1630

          k =-0.2500 0.2500-0.2500     band energies (ev):

    -4.9786   2.1246   5.2354   5.2354   7.9692   9.4695   9.4695  12.7297

          k =-0.5000 0.5000-0.5000     band energies (ev):

    -3.4867  -0.8470   4.8033   4.8033   7.4840   9.3345   9.3345  13.6927

          k = 0.4167 0.0833-0.4167     band energies (ev):

    -4.3122   1.2013   3.1526   5.0678   8.7382   9.9575  10.1241  12.0277

          k = 0.1667 0.3333-0.6667     band energies (ev):

    -3.4635   0.0571   2.8360   3.9080   8.2440  10.1639  10.7537  11.9166

          k = 0.4167 0.0833 0.4167     band energies (ev):

    -4.3122   1.2013   3.1526   5.0678   8.7382   9.9575  10.1241  12.0277

          k = 0.1667 0.3333 0.1667     band energies (ev):

    -5.0600   2.6083   4.9001   5.0705   8.3987   9.1554  10.0110  11.3449

          k = 0.4167-0.4167 0.0833     band energies (ev):

    -4.3122   1.2013   3.1526   5.0678   8.7382   9.9575  10.1241  12.0277

          k = 0.1667-0.1667-0.1667     band energies (ev):

    -5.4074   3.6387   5.5384   5.5384   8.2895   9.1710   9.1710  11.2690

          k = 0.0833-0.4167-0.4167     band energies (ev):

    -4.3122   1.2013   3.1526   5.0678   8.7382   9.9575  10.1241  12.0277

          k =-0.1667-0.1667-0.6667     band energies (ev):

    -3.7131   0.6062   3.0700   3.7902   7.4535   9.2436  11.7966  12.1141

          k =-0.4167 0.4167-0.0833     band energies (ev):

    -4.3122   1.2013   3.1526   5.0678   8.7382   9.9575  10.1241  12.0277

          k =-0.6667 0.6667-0.3333     band energies (ev):

    -3.3288  -0.4999   3.2667   4.2442   8.0395  10.0487  10.5840  12.3431

          k =-0.4167 0.9167 0.4167     band energies (ev):

    -3.1567  -0.2171   2.0692   4.2990   8.0297  11.2581  11.3572  13.0568

          k =-0.6667 1.1667 0.1667     band energies (ev):

    -2.6366  -0.6475   2.1374   3.4272   7.8944  10.2736  11.3828  13.3863

          k =-0.4167 0.9167-0.4167     band energies (ev):

    -3.1567  -0.2171   2.0692   4.2990   8.0297  11.2581  11.3572  13.0568

          k =-0.6667 1.1667-0.6667     band energies (ev):

    -4.7259   1.6575   4.3308   5.3073   8.3691   9.4398   9.7084  12.4079

          k =-0.4167 0.4167 0.9167     band energies (ev):

    -3.1567  -0.2171   2.0692   4.2990   8.0297  11.2581  11.3572  13.0568

          k =-0.6667 0.6667 0.6667     band energies (ev):

    -4.4149   0.7479   4.9985   4.9985   7.7065   9.4855   9.4855  13.7601

          k = 0.9167 0.4167 0.4167     band energies (ev):

    -3.1567  -0.2171   2.0692   4.2990   8.0297  11.2581  11.3572  13.0568

          k = 0.6667 0.6667 0.1667     band energies (ev):

    -2.7913  -0.6967   2.1831   4.0023   7.7173  11.3872  11.5617  12.0636

          k = 0.4167-0.4167-0.9167     band energies (ev):

    -3.1567  -0.2171   2.0692   4.2990   8.0297  11.2581  11.3572  13.0568

          k = 0.1667-0.1667-1.1667     band energies (ev):

    -2.7612  -0.4841   2.4470   3.4864   7.0998   8.7159  13.3377  13.3479

          k =-0.2500 0.7500 0.2500     band energies (ev):

    -3.1050  -0.2952   2.5366   3.8271   7.5433  10.4173  11.6261  11.8516

          k =-0.5000 1.0000 0.0000     band energies (ev):

    -1.5518  -1.5518   2.2357   2.2357  10.2530  10.2530  10.9182  10.9182

          k =-0.2500 0.7500-0.2500     band energies (ev):

    -3.1050  -0.2952   2.5366   3.8271   7.5433  10.4173  11.6261  11.8516

          k =-0.5000 1.0000-0.5000     band energies (ev):

    -3.7630   0.5855   2.3295   4.6807   8.4362  10.7247  11.0621  12.0253

          k =-0.2500 0.2500 0.7500     band energies (ev):

    -3.1050  -0.2952   2.5366   3.8271   7.5433  10.4173  11.6261  11.8516

          k =-0.5000 0.5000 0.5000     band energies (ev):

    -3.4867  -0.8470   4.8033   4.8033   7.4840   9.3345   9.3345  13.6927

          k = 0.7500 0.2500 0.2500     band energies (ev):

    -3.1050  -0.2952   2.5366   3.8271   7.5433  10.4173  11.6261  11.8516

          k = 0.5000 0.5000 0.0000     band energies (ev):

    -3.7630   0.5855   2.3295   4.6807   8.4362  10.7247  11.0621  12.0253

          k = 0.2500-0.2500-0.7500     band energies (ev):

    -3.1050  -0.2952   2.5366   3.8271   7.5433  10.4173  11.6261  11.8516

          k = 0.0000 0.0000-1.0000     band energies (ev):

    -1.7076  -1.7076   3.1947   3.1947   6.7574   6.7574  15.8895  15.8895

          k = 0.2500 0.2500 0.5833     band energies (ev):

    -3.8964   0.4098   3.6031   4.1931   8.0104  10.1780  10.8440  11.0083

          k = 0.0000 0.5000 0.3333     band energies (ev):

    -4.2755   1.3615   2.9664   4.7361   9.1807   9.3052  10.6438  11.2546

          k = 0.2500-0.5833 0.2500     band energies (ev):

    -3.8964   0.4098   3.6031   4.1931   8.0104  10.1780  10.8440  11.0083

          k = 0.0000-0.3333 0.0000     band energies (ev):

    -5.2871   3.9529   4.8188   4.8188   7.7081  10.2091  10.2744  10.2744

          k =-0.2500-0.5833-0.2500     band energies (ev):

    -3.8964   0.4098   3.6031   4.1931   8.0104  10.1780  10.8440  11.0083

          k =-0.5000-0.3333-0.5000     band energies (ev):

    -3.5666  -0.5754   4.1431   4.7709   8.0176   9.3732   9.5701  13.9582

          k =-0.2500 0.5833-0.2500     band energies (ev):

    -3.8964   0.4098   3.6031   4.1931   8.0104  10.1780  10.8440  11.0083

          k =-0.5000 0.8333-0.5000     band energies (ev):

    -3.7032   0.0834   3.0066   4.7097   8.4256  10.0681  10.1944  13.1702

          k = 0.2500-0.2500-0.5833     band energies (ev):

    -3.8964   0.4098   3.6031   4.1931   8.0104  10.1780  10.8440  11.0083

          k = 0.0000 0.0000-0.8333     band energies (ev):

    -2.8910  -0.3831   3.3024   3.3024   6.6157   7.2205  14.6700  14.6700

          k =-0.5833 1.0833 0.2500     band energies (ev):

    -2.9140  -0.3317   2.1676   3.4200   9.2104   9.7334  10.6979  13.3777

          k =-0.8333 1.3333 0.0000     band energies (ev):

    -2.0548  -1.1575   1.8482   3.2782   7.7693  10.1403  12.5570  12.9488

          k =-0.5833 1.0833-0.2500     band energies (ev):

    -2.9140  -0.3317   2.1676   3.4200   9.2104   9.7334  10.6979  13.3777

          k =-0.8333 1.3333-0.5000     band energies (ev):

    -4.1839   0.8033   3.6026   4.6995   8.6208   9.3569  10.5622  11.4989

          k =-0.5833 0.2500 1.0833     band energies (ev):

    -2.9140  -0.3317   2.1676   3.4200   9.2104   9.7334  10.6979  13.3777

          k =-0.8333 0.5000 0.8333     band energies (ev):

    -4.4898   1.6144   4.0330   4.2768   7.9634   9.9993  10.4840  11.0069

          k = 1.0833 0.2500 0.5833     band energies (ev):

    -2.9140  -0.3317   2.1676   3.4200   9.2104   9.7334  10.6979  13.3777

          k = 0.8333 0.5000 0.3333     band energies (ev):

    -3.1127  -0.4474   2.4814   4.0577   8.6080   9.7125  11.7243  12.5916

          k =-1.0833 0.2500 0.5833     band energies (ev):

    -2.9140  -0.3317   2.1676   3.4200   9.2104   9.7334  10.6979  13.3777

          k =-1.3333 0.5000 0.3333     band energies (ev):

    -3.2501  -0.7438   3.4392   4.3707   8.5297   9.1193  10.4462  13.9647

          k = 0.5833-0.2500-1.0833     band energies (ev):

    -2.9140  -0.3317   2.1676   3.4200   9.2104   9.7334  10.6979  13.3777

          k = 0.3333 0.0000-1.3333     band energies (ev):

    -3.5225   0.4198   2.5071   3.7464   8.8340   9.7109  10.1647  12.9505

          k =-0.5833-1.0833 0.2500     band energies (ev):

    -2.9140  -0.3317   2.1676   3.4200   9.2104   9.7334  10.6979  13.3777

          k =-0.8333-0.8333 0.0000     band energies (ev):

    -1.8494  -1.4498   2.2400   3.3833   6.9745   8.5428  14.3776  14.8579

          k =-0.4167 0.9167 0.0833     band energies (ev):

    -2.0994  -1.0566   2.0093   2.7678   9.0129  10.2616  11.0310  12.4029

          k =-0.6667 1.1667-0.1667     band energies (ev):

    -2.6366  -0.6475   2.1374   3.4272   7.8944  10.2736  11.3828  13.3863

          k =-0.4167 0.9167-0.0833     band energies (ev):

    -2.0994  -1.0566   2.0093   2.7678   9.0129  10.2616  11.0310  12.4029

          k =-0.6667 1.1667-0.3333     band energies (ev):

    -3.4635   0.0571   2.8360   3.9080   8.2440  10.1639  10.7537  11.9166

          k =-0.4167 0.0833 0.9167     band energies (ev):

    -2.0994  -1.0566   2.0093   2.7678   9.0129  10.2616  11.0310  12.4029

          k =-0.6667 0.3333 0.6667     band energies (ev):

    -3.3288  -0.4999   3.2667   4.2442   8.0395  10.0487  10.5840  12.3431

          k = 0.9167 0.0833 0.4167     band energies (ev):

    -2.0994  -1.0566   2.0093   2.7678   9.0129  10.2616  11.0310  12.4029

          k = 0.6667 0.3333 0.1667     band energies (ev):

    -3.4635   0.0571   2.8360   3.9080   8.2440  10.1639  10.7537  11.9166

          k =-0.9167 0.0833 0.4167     band energies (ev):

    -2.0994  -1.0566   2.0093   2.7678   9.0129  10.2616  11.0310  12.4029

          k =-1.1667 0.3333 0.1667     band energies (ev):

    -2.6366  -0.6475   2.1374   3.4272   7.8944  10.2736  11.3828  13.3863

          k = 0.4167-0.0833-0.9167     band energies (ev):

    -2.0994  -1.0566   2.0093   2.7678   9.0129  10.2616  11.0310  12.4029

          k = 0.1667 0.1667-1.1667     band energies (ev):

    -2.7612  -0.4841   2.4470   3.4864   7.0998   8.7159  13.3377  13.3479

          k =-0.4167-0.9167 0.0833     band energies (ev):

    -2.0994  -1.0566   2.0093   2.7678   9.0129  10.2616  11.0310  12.4029

          k =-0.6667-0.6667-0.1667     band energies (ev):

    -2.7913  -0.6967   2.1831   4.0023   7.7173  11.3872  11.5617  12.0636

          k = 0.2500 0.2500-1.0833     band energies (ev):

    -2.3063  -0.9617   1.8854   3.6361   7.2731  10.1333  13.0016  13.1741

          k = 0.0000 0.5000-1.3333     band energies (ev):

    -3.0922  -0.1392   1.9426   3.9559   8.5228  10.5901  11.4395  12.7447

          k = 0.2500 1.0833 0.2500     band energies (ev):

    -2.3063  -0.9617   1.8854   3.6361   7.2731  10.1333  13.0016  13.1741

          k = 0.0000 1.3333 0.0000     band energies (ev):

    -3.8978   1.0359   3.6208   3.6208   6.7617   8.0233  13.1368  13.1368

          k =-0.2500 1.0833-0.2500     band energies (ev):

    -2.3063  -0.9617   1.8854   3.6361   7.2731  10.1333  13.0016  13.1741

          k =-0.5000 1.3333-0.5000     band energies (ev):

    -3.5666  -0.5754   4.1431   4.7709   8.0176   9.3732   9.5701  13.9582

          k =-0.2500-1.0833-0.2500     band energies (ev):

    -2.3063  -0.9617   1.8854   3.6361   7.2731  10.1333  13.0016  13.1741

          k =-0.5000-0.8333-0.5000     band energies (ev):

    -3.7032   0.0834   3.0066   4.7097   8.4256  10.0681  10.1944  13.1702

          k = 0.2500-0.2500 1.0833     band energies (ev):

    -2.3063  -0.9617   1.8854   3.6361   7.2731  10.1333  13.0016  13.1741

          k = 0.0000 0.0000 0.8333     band energies (ev):

    -2.8910  -0.3831   3.3024   3.3024   6.6157   7.2205  14.6700  14.6700

          k = 0.4167 0.4167 0.4167     band energies (ev):

    -3.8105  -0.3554   4.8521   4.8521   7.5402   9.3847   9.3847  13.7666

          k = 0.1667 0.6667 0.1667     band energies (ev):

    -3.7131   0.6062   3.0700   3.7902   7.4535   9.2436  11.7966  12.1141

          k = 0.4167-0.4167 0.4167     band energies (ev):

    -3.8105  -0.3554   4.8521   4.8521   7.5402   9.3847   9.3847  13.7666

          k = 0.1667-0.1667 0.1667     band energies (ev):

    -5.4074   3.6387   5.5384   5.5384   8.2895   9.1710   9.1710  11.2690

          k =-0.4167 0.4167-0.4167     band energies (ev):

    -3.8105  -0.3554   4.8521   4.8521   7.5402   9.3847   9.3847  13.7666

          k =-0.6667 0.6667-0.6667     band energies (ev):

    -4.4149   0.7479   4.9985   4.9985   7.7065   9.4855   9.4855  13.7601

          k =-0.4167 1.2500 0.4167     band energies (ev):

    -3.2181  -0.6548   3.0590   4.4228   8.1755  10.0084  10.3631  13.8696

          k =-0.6667 1.5000 0.1667     band energies (ev):

    -3.1127  -0.4474   2.4814   4.0577   8.6080   9.7125  11.7243  12.5916

          k =-0.4167 1.2500-0.4167     band energies (ev):

    -3.2181  -0.6548   3.0590   4.4228   8.1755  10.0084  10.3631  13.8696

          k =-0.6667 1.5000-0.6667     band energies (ev):

    -3.9260   0.0015   4.4348   4.6035   8.0749   9.2500   9.8690  12.9436

          k =-0.4167 0.4167 1.2500     band energies (ev):

    -3.2181  -0.6548   3.0590   4.4228   8.1755  10.0084  10.3631  13.8696

          k =-0.6667 0.6667 1.0000     band energies (ev):

    -4.8321   2.3165   3.6356   5.4223   8.9743   9.5162   9.7931  11.5690

          k = 1.2500 0.4167 0.4167     band energies (ev):

    -3.2181  -0.6548   3.0590   4.4228   8.1755  10.0084  10.3631  13.8696

          k = 1.0000 0.6667 0.1667     band energies (ev):

    -2.6086  -0.5617   2.3139   2.9178   8.6724   9.0822  11.3044  14.1796

          k = 0.4167-0.4167-1.2500     band energies (ev):

    -3.2181  -0.6548   3.0590   4.4228   8.1755  10.0084  10.3631  13.8696

          k = 0.1667-0.1667-1.5000     band energies (ev):

    -4.4898   1.6144   4.0330   4.2768   7.9634   9.9993  10.4840  11.0069

     highest occupied, lowest unoccupied level (ev):     5.9763    6.6157

     Writing output data file si.save

                                                                                

     bravais-lattice index     =            2
     lattice parameter (alat)  =      10.3463  a.u.
     unit-cell volume          =     276.8823 (a.u.)^3
     number of atoms/cell      =            2
     number of atomic types    =            1
     kinetic-energy cut-off    =      20.0000  Ry
     charge density cut-off    =      80.0000  Ry
     convergence threshold     =      1.0E-14
     beta                      =       0.7000
     number of iterations used =            4
     Exchange-correlation      =  SLA  PW   PBE  PBE ( 1 4 3 4 0)
     EXX-fraction              =        0.00


     celldm(1)=   10.34630  celldm(2)=    0.00000  celldm(3)=    0.00000
     celldm(4)=    0.00000  celldm(5)=    0.00000  celldm(6)=    0.00000

     crystal axes: (cart. coord. in units of alat)
               a(1) = ( -0.5000  0.0000  0.5000 )  
               a(2) = (  0.0000  0.5000  0.5000 )  
               a(3) = ( -0.5000  0.5000  0.0000 )  

     reciprocal axes: (cart. coord. in units 2 pi/alat)
               b(1) = ( -1.0000 -1.0000  1.0000 )  
               b(2) = (  1.0000  1.0000  1.0000 )  
               b(3) = ( -1.0000  1.0000 -1.0000 )  


     Atoms inside the unit cell: 

   Cartesian axes

     site n.  atom      mass           positions (alat units)
        1        Si  28.0860   tau( 1) = (    0.00000    0.00000    0.00000  )
        2        Si  28.0860   tau( 2) = (   -0.25000    0.25000    0.25000  )

     Computing dynamical matrix for 
                    q = (  -0.2500000   0.2500000  -0.2500000 )
 
      6 Sym.Ops. (no q -> -q+G )


     G cutoff =  216.9204  (   3383 G-vectors)     FFT grid: ( 24, 24, 24)
     number of k points=   364

     PseudoPot. # 1 for Si read from file:
     ./tmp/si.save/Si.pbe-rrkj.UPF
     MD5 check sum: cf7ab5690cd9a85b22c4813f7e365554
     Pseudo is Norm-conserving, Zval =  4.0
     Generated by new atomic code, or converted to UPF format
     Using radial grid of  883 points,  3 beta functions with: 
                l(1) =   0
                l(2) =   0
                l(3) =   1


     Atomic displacements:
     There are   4 irreducible representations

     Representation     1      1 modes -A_1  L_1 To be done

     Representation     2      1 modes -A_1  L_1 To be done

     Representation     3      2 modes -E    L_3 To be done

     Representation     4      2 modes -E    L_3 To be done



     Alpha used in Ewald sum =   0.8000
     PHONON       :  1m26.86s CPU     1m30.67s WALL



     Representation #  1 mode #   1

     Self-consistent Calculation

      iter #   1 total cpu time :    96.4 secs   av.it.:   6.2
      thresh= 0.100E-01 alpha_mix =  0.700 |ddv_scf|^2 =  0.143E-02

      iter #   2 total cpu time :   102.3 secs   av.it.:   8.1
      thresh= 0.378E-02 alpha_mix =  0.700 |ddv_scf|^2 =  0.218E-01

      iter #   3 total cpu time :   107.4 secs   av.it.:   6.8
      thresh= 0.100E-01 alpha_mix =  0.700 |ddv_scf|^2 =  0.953E-06

      iter #   4 total cpu time :   113.3 secs   av.it.:   8.6
      thresh= 0.976E-04 alpha_mix =  0.700 |ddv_scf|^2 =  0.106E-06

      iter #   5 total cpu time :   119.1 secs   av.it.:   8.2
      thresh= 0.326E-04 alpha_mix =  0.700 |ddv_scf|^2 =  0.761E-09

      iter #   6 total cpu time :   125.2 secs   av.it.:   8.5
      thresh= 0.276E-05 alpha_mix =  0.700 |ddv_scf|^2 =  0.557E-09

      iter #   7 total cpu time :   130.6 secs   av.it.:   7.4
      thresh= 0.236E-05 alpha_mix =  0.700 |ddv_scf|^2 =  0.323E-09

      iter #   8 total cpu time :   136.0 secs   av.it.:   7.6
      thresh= 0.180E-05 alpha_mix =  0.700 |ddv_scf|^2 =  0.304E-12

      iter #   9 total cpu time :   141.8 secs   av.it.:   8.3
      thresh= 0.552E-07 alpha_mix =  0.700 |ddv_scf|^2 =  0.994E-14

     End of self-consistent calculation

     Convergence has been achieved 


     Representation #  2 mode #   2

     Self-consistent Calculation

      iter #   1 total cpu time :   147.4 secs   av.it.:   6.2
      thresh= 0.100E-01 alpha_mix =  0.700 |ddv_scf|^2 =  0.143E-02

      iter #   2 total cpu time :   153.2 secs   av.it.:   8.1
      thresh= 0.378E-02 alpha_mix =  0.700 |ddv_scf|^2 =  0.218E-01

      iter #   3 total cpu time :   158.4 secs   av.it.:   6.8
      thresh= 0.100E-01 alpha_mix =  0.700 |ddv_scf|^2 =  0.953E-06

      iter #   4 total cpu time :   164.7 secs   av.it.:   8.6
      thresh= 0.976E-04 alpha_mix =  0.700 |ddv_scf|^2 =  0.106E-06

      iter #   5 total cpu time :   170.5 secs   av.it.:   8.2
      thresh= 0.326E-04 alpha_mix =  0.700 |ddv_scf|^2 =  0.761E-09

      iter #   6 total cpu time :   176.7 secs   av.it.:   8.5
      thresh= 0.276E-05 alpha_mix =  0.700 |ddv_scf|^2 =  0.557E-09

      iter #   7 total cpu time :   182.5 secs   av.it.:   7.4
      thresh= 0.236E-05 alpha_mix =  0.700 |ddv_scf|^2 =  0.323E-09

      iter #   8 total cpu time :   188.4 secs   av.it.:   7.6
      thresh= 0.180E-05 alpha_mix =  0.700 |ddv_scf|^2 =  0.304E-12

      iter #   9 total cpu time :   194.7 secs   av.it.:   8.3
      thresh= 0.551E-07 alpha_mix =  0.700 |ddv_scf|^2 =  0.993E-14

     End of self-consistent calculation

     Convergence has been achieved 


     Representation #  3 modes #   3  4

     Self-consistent Calculation

      iter #   1 total cpu time :   206.8 secs   av.it.:   5.8
      thresh= 0.100E-01 alpha_mix =  0.700 |ddv_scf|^2 =  0.287E-06

      iter #   2 total cpu time :   221.9 secs   av.it.:  10.3
      thresh= 0.536E-04 alpha_mix =  0.700 |ddv_scf|^2 =  0.163E-07

      iter #   3 total cpu time :   236.0 secs   av.it.:  10.1
      thresh= 0.127E-04 alpha_mix =  0.700 |ddv_scf|^2 =  0.328E-09

      iter #   4 total cpu time :   249.6 secs   av.it.:   9.5
      thresh= 0.181E-05 alpha_mix =  0.700 |ddv_scf|^2 =  0.907E-11

      iter #   5 total cpu time :   262.9 secs   av.it.:   9.8
      thresh= 0.301E-06 alpha_mix =  0.700 |ddv_scf|^2 =  0.168E-13

      iter #   6 total cpu time :   276.7 secs   av.it.:  10.0
      thresh= 0.130E-07 alpha_mix =  0.700 |ddv_scf|^2 =  0.724E-15

     End of self-consistent calculation

     Convergence has been achieved 


     Representation #  4 modes #   5  6

     Self-consistent Calculation

      iter #   1 total cpu time :   287.6 secs   av.it.:   5.9
      thresh= 0.100E-01 alpha_mix =  0.700 |ddv_scf|^2 =  0.287E-06

      iter #   2 total cpu time :   301.7 secs   av.it.:  10.4
      thresh= 0.535E-04 alpha_mix =  0.700 |ddv_scf|^2 =  0.162E-07

      iter #   3 total cpu time :   315.6 secs   av.it.:  10.2
      thresh= 0.127E-04 alpha_mix =  0.700 |ddv_scf|^2 =  0.329E-09

      iter #   4 total cpu time :   328.7 secs   av.it.:   9.6
      thresh= 0.181E-05 alpha_mix =  0.700 |ddv_scf|^2 =  0.904E-11

      iter #   5 total cpu time :   341.8 secs   av.it.:   9.9
      thresh= 0.301E-06 alpha_mix =  0.700 |ddv_scf|^2 =  0.169E-13

      iter #   6 total cpu time :   355.3 secs   av.it.:  10.1
      thresh= 0.130E-07 alpha_mix =  0.700 |ddv_scf|^2 =  0.728E-15

     End of self-consistent calculation

     Convergence has been achieved 
 
     Number of q in the star =    8
     List of q in the star:
          1  -0.250000000   0.250000000  -0.250000000
          2   0.250000000  -0.250000000  -0.250000000
          3   0.250000000  -0.250000000   0.250000000
          4   0.250000000   0.250000000   0.250000000
          5  -0.250000000  -0.250000000  -0.250000000
          6  -0.250000000  -0.250000000   0.250000000
          7  -0.250000000   0.250000000   0.250000000
          8   0.250000000   0.250000000  -0.250000000

     Diagonalizing the dynamical matrix

     q = (   -0.250000000   0.250000000  -0.250000000 ) 

 **************************************************************************
     omega( 1) =       2.889981 [THz] =      96.399395 [cm-1]
     omega( 2) =       2.889981 [THz] =      96.399395 [cm-1]
     omega( 3) =       6.743473 [THz] =     224.938063 [cm-1]
     omega( 4) =      14.137803 [THz] =     471.586341 [cm-1]
     omega( 5) =      14.420370 [THz] =     481.011764 [cm-1]
     omega( 6) =      14.420370 [THz] =     481.011764 [cm-1]
 **************************************************************************

     Calculation of q =    0.5000000  -0.5000000   0.5000000
 
     G-vector sticks info
     --------------------
     sticks:   dense  smooth     PW     G-vecs:    dense   smooth      PW
     Sum         301     301    121                 3383     3383     941
 


     bravais-lattice index     =            2
     lattice parameter (alat)  =      10.3463  a.u.
     unit-cell volume          =     276.8823 (a.u.)^3
     number of atoms/cell      =            2
     number of atomic types    =            1
     number of electrons       =         8.00
     number of Kohn-Sham states=            8
     kinetic-energy cutoff     =      20.0000  Ry
     charge density cutoff     =      80.0000  Ry
     Exchange-correlation      =  SLA  PW   PBE  PBE ( 1 4 3 4 0)
     EXX-fraction              =        0.00

     celldm(1)=  10.346300  celldm(2)=   0.000000  celldm(3)=   0.000000
     celldm(4)=   0.000000  celldm(5)=   0.000000  celldm(6)=   0.000000

     crystal axes: (cart. coord. in units of alat)
               a(1) = (  -0.500000   0.000000   0.500000 )  
               a(2) = (   0.000000   0.500000   0.500000 )  
               a(3) = (  -0.500000   0.500000   0.000000 )  

     reciprocal axes: (cart. coord. in units 2 pi/alat)
               b(1) = ( -1.000000 -1.000000  1.000000 )  
               b(2) = (  1.000000  1.000000  1.000000 )  
               b(3) = ( -1.000000  1.000000 -1.000000 )  


     PseudoPot. # 1 for Si read from file:
     ./tmp/si.save/Si.pbe-rrkj.UPF
     MD5 check sum: cf7ab5690cd9a85b22c4813f7e365554
     Pseudo is Norm-conserving, Zval =  4.0
     Generated by new atomic code, or converted to UPF format
     Using radial grid of  883 points,  3 beta functions with: 
                l(1) =   0
                l(2) =   0
                l(3) =   1

     atomic species   valence    mass     pseudopotential
        Si             4.00    28.08600     Si( 1.00)

     48 Sym.Ops. (with inversion)


   Cartesian axes

     site n.     atom                  positions (alat units)
         1           Si  tau(   1) = (   0.0000000   0.0000000   0.0000000  )
         2           Si  tau(   2) = (  -0.2500000   0.2500000   0.2500000  )

     number of k points=   182

     Number of k-points >= 100: set verbosity='high' to print them.

     Dense  grid:     3383 G-vectors     FFT dimensions: (  24,  24,  24)

     Largest allocated arrays     est. size (Mb)     dimensions
        Kohn-Sham Wavefunctions         0.05 Mb     (    426,    8)
        NL pseudopotentials             0.07 Mb     (    426,   10)
        Each V/rho on FFT grid          0.21 Mb     (  13824)
        Each G-vector array             0.03 Mb     (   3383)
        G-vector shells                 0.00 Mb     (     75)
     Largest temporary arrays     est. size (Mb)     dimensions
        Auxiliary wavefunctions         0.21 Mb     (    426,   32)
        Each subspace H/S matrix        0.02 Mb     (  32,  32)
        Each <psi_i|beta_j> matrix      0.00 Mb     (     10,    8)

     The potential is recalculated from file :
     ./tmp/_ph0/si.save/charge-density.dat

     Starting wfc are    8 atomic wfcs

     total cpu time spent up to now is       36.0 secs

     per-process dynamical memory:     6.3 Mb

     Band Structure Calculation
     Davidson diagonalization with overlap

     ethr =  1.25E-10,  avg # of iterations = 18.7

     total cpu time spent up to now is       52.3 secs

     End of band structure calculation

          k =-0.0833 0.0833 0.0833 (   417 PWs)   bands (ev):

    -5.6717   5.1311   5.8370   5.8370   8.5571   8.7440   8.7440   9.8449

          k = 0.4167-0.4167 0.5833 (   415 PWs)   bands (ev):

    -3.4495  -0.7481   4.2349   4.6322   7.9934   9.2583   9.6787  13.8495

          k =-0.2500 0.2500-0.0833 (   412 PWs)   bands (ev):

    -5.2038   3.0838   4.6311   5.6292   8.6488   9.1358   9.4818  11.6016

          k = 0.2500-0.2500 0.4167 (   417 PWs)   bands (ev):

    -4.5361   1.2034   4.6933   4.7248   8.2425   9.2655  10.0485  11.9182

          k =-0.4167 0.4167-0.2500 (   415 PWs)   bands (ev):

    -4.1325   0.3727   4.1721   5.0043   8.1472   9.5323   9.5729  13.3801

          k = 0.0833-0.0833 0.2500 (   411 PWs)   bands (ev):

    -5.4355   4.0774   5.2070   5.3868   8.2938   9.1511   9.6262  10.7567

          k = 0.4167-0.4167 0.5833 (   415 PWs)   bands (ev):

    -3.4495  -0.7481   4.2349   4.6322   7.9934   9.2583   9.6787  13.8495

          k = 0.9167-0.9167 1.0833 (   417 PWs)   bands (ev):

    -5.6717   5.1311   5.8370   5.8370   8.5571   8.7440   8.7440   9.8449

          k = 0.2500-0.2500 0.4167 (   417 PWs)   bands (ev):

    -4.5361   1.2034   4.6933   4.7248   8.2425   9.2655  10.0485  11.9182

          k = 0.7500-0.7500 0.9167 (   412 PWs)   bands (ev):

    -5.2038   3.0838   4.6311   5.6292   8.6488   9.1358   9.4818  11.6016

          k = 0.0833-0.0833 0.2500 (   411 PWs)   bands (ev):

    -5.4355   4.0774   5.2070   5.3868   8.2938   9.1511   9.6262  10.7567

          k = 0.5833-0.5833 0.7500 (   415 PWs)   bands (ev):

    -4.1325   0.3727   4.1721   5.0043   8.1472   9.5323   9.5729  13.3801

          k =-0.0833 0.4167 0.0833 (   421 PWs)   bands (ev):

    -4.9670   2.8924   4.4761   4.4915   7.7267   9.8415  10.6255  10.8293

          k = 0.4167-0.0833 0.5833 (   417 PWs)   bands (ev):

    -3.6872   0.4056   2.5579   4.3655   8.9500   9.5743  11.2265  11.6941

          k =-0.2500 0.5833-0.0833 (   415 PWs)   bands (ev):

    -4.0737   1.0842   3.1875   4.1122   8.1209   9.7291  10.4913  11.9283

          k = 0.2500 0.0833 0.4167 (   416 PWs)   bands (ev):

    -4.7458   2.0739   3.8702   5.0180   8.5931   9.4401  10.4990  10.8692

          k = 0.5833-0.2500 0.7500 (   419 PWs)   bands (ev):

    -2.9809  -0.6292   2.5952   3.8901   8.3683   9.8947  11.8125  12.1988

          k = 1.0833-0.7500 1.2500 (   412 PWs)   bands (ev):

    -5.2038   3.0838   4.6311   5.6292   8.6488   9.1358   9.4818  11.6016

          k = 0.4167-0.0833 0.5833 (   417 PWs)   bands (ev):

    -3.6872   0.4056   2.5579   4.3655   8.9500   9.5743  11.2265  11.6941

          k = 0.9167-0.5833 1.0833 (   421 PWs)   bands (ev):

    -4.9670   2.8924   4.4761   4.4915   7.7267   9.8415  10.6255  10.8293

          k = 0.2500 0.0833 0.4167 (   416 PWs)   bands (ev):

    -4.7458   2.0739   3.8702   5.0180   8.5931   9.4401  10.4990  10.8692

          k = 0.7500-0.4167 0.9167 (   415 PWs)   bands (ev):

    -4.0737   1.0842   3.1875   4.1122   8.1209   9.7291  10.4913  11.9283

          k =-0.0833 0.7500 0.0833 (   426 PWs)   bands (ev):

    -3.3751   0.2670   3.1516   3.4808   6.9227   7.8899  13.4484  13.5130

          k = 0.4167 0.2500 0.5833 (   419 PWs)   bands (ev):

    -3.5782  -0.2595   3.4752   4.4598   8.5558   9.1946  10.4889  12.6840

          k = 0.7500-0.0833 0.9167 (   422 PWs)   bands (ev):

    -2.2026  -1.0488   2.3306   3.0861   7.5375   8.6392  13.0100  14.4530

          k = 1.2500-0.5833 1.4167 (   415 PWs)   bands (ev):

    -4.1325   0.3727   4.1721   5.0043   8.1472   9.5323   9.5729  13.3801

          k = 0.5833 0.0833 0.7500 (   415 PWs)   bands (ev):

    -2.5687  -0.7153   1.8572   3.6202   8.1440  11.0045  11.9778  12.6304

          k = 1.0833-0.4167 1.2500 (   415 PWs)   bands (ev):

    -4.0737   1.0842   3.1875   4.1122   8.1209   9.7291  10.4913  11.9283

          k = 0.4167 0.2500 0.5833 (   419 PWs)   bands (ev):

    -3.5782  -0.2595   3.4752   4.4598   8.5558   9.1946  10.4889  12.6840

          k = 0.9167-0.2500 1.0833 (   426 PWs)   bands (ev):

    -3.3751   0.2670   3.1516   3.4808   6.9227   7.8899  13.4484  13.5130

          k =-0.0833-0.9167 0.0833 (   423 PWs)   bands (ev):

    -2.2915  -1.0561   2.8872   3.2692   6.8169   7.3730  14.9203  15.0002

          k = 0.4167-1.4167 0.5833 (   415 PWs)   bands (ev):

    -3.4495  -0.7481   4.2349   4.6322   7.9934   9.2583   9.6787  13.8495

          k =-0.2500-0.7500-0.0833 (   420 PWs)   bands (ev):

    -3.2102   0.0485   2.6442   3.4198   7.7410   9.0054  11.6717  13.4548

          k = 0.2500-1.2500 0.4167 (   419 PWs)   bands (ev):

    -2.9809  -0.6292   2.5952   3.8901   8.3683   9.8947  11.8125  12.1988

          k =-0.0833-0.5833 0.0833 (   425 PWs)   bands (ev):

    -4.2751   1.6097   3.6850   3.8959   7.2334   8.7901  11.9342  12.1387

          k = 0.4167-1.0833 0.5833 (   417 PWs)   bands (ev):

    -3.6872   0.4056   2.5579   4.3655   8.9500   9.5743  11.2265  11.6941

          k =-0.2500 0.2500 0.2500 (   417 PWs)   bands (ev):

    -4.9786   2.1246   5.2354   5.2354   7.9692   9.4695   9.4695  12.7297

          k = 0.2500-0.2500 0.7500 (   420 PWs)   bands (ev):

    -3.1050  -0.2952   2.5366   3.8271   7.5433  10.4173  11.6261  11.8516

          k =-0.4167 0.4167 0.0833 (   417 PWs)   bands (ev):

    -4.3122   1.2013   3.1526   5.0678   8.7382   9.9575  10.1241  12.0277

          k = 0.0833-0.0833 0.5833 (   425 PWs)   bands (ev):

    -4.2751   1.6097   3.6850   3.8959   7.2334   8.7901  11.9342  12.1387

          k = 0.4167-0.4167 0.9167 (   416 PWs)   bands (ev):

    -3.1567  -0.2171   2.0692   4.2990   8.0297  11.2581  11.3572  13.0568

          k = 0.9167-0.9167 1.4167 (   421 PWs)   bands (ev):

    -4.9670   2.8924   4.4761   4.4915   7.7267   9.8415  10.6255  10.8293

          k = 0.2500-0.2500 0.7500 (   420 PWs)   bands (ev):

[...]

          k =-0.2500-0.4167 0.4167 (   415 PWs)   bands (ev):

    -4.1325   0.3727   4.1721   5.0043   8.1472   9.5323   9.5729  13.3801

          k =-0.2500 0.5833-0.4167 (   419 PWs)   bands (ev):

    -3.5782  -0.2595   3.4752   4.4598   8.5558   9.1946  10.4889  12.6840

          k =-0.7500-0.4167-0.4167 (   414 PWs)   bands (ev):

    -3.2181  -0.6548   3.0590   4.4228   8.1755  10.0084  10.3631  13.8696

          k = 0.0833-0.9167-0.0833 (   423 PWs)   bands (ev):

    -2.2915  -1.0561   2.8872   3.2692   6.8169   7.3730  14.9203  15.0002

          k =-0.4167-1.9167-0.0833 (   421 PWs)   bands (ev):

    -4.9670   2.8924   4.4761   4.4915   7.7267   9.8415  10.6255  10.8293

          k =-0.9167 0.0833-0.0833 (   423 PWs)   bands (ev):

    -2.2915  -1.0561   2.8872   3.2692   6.8169   7.3730  14.9203  15.0002

          k =-1.4167-0.9167-0.0833 (   418 PWs)   bands (ev):

    -2.0994  -1.0566   2.0093   2.7678   9.0129  10.2616  11.0310  12.4029

          k = 0.0833 0.7500 0.2500 (   420 PWs)   bands (ev):

    -3.2102   0.0485   2.6442   3.4198   7.7410   9.0054  11.6717  13.4548

          k =-0.4167-0.2500 0.2500 (   417 PWs)   bands (ev):

    -4.5361   1.2034   4.6933   4.7248   8.2425   9.2655  10.0485  11.9182

          k =-0.0833-0.7500-0.2500 (   420 PWs)   bands (ev):

    -3.2102   0.0485   2.6442   3.4198   7.7410   9.0054  11.6717  13.4548

          k =-0.5833-1.7500-0.2500 (   421 PWs)   bands (ev):

    -3.8964   0.4098   3.6031   4.1931   8.0104  10.1780  10.8440  11.0083

          k = 0.2500 0.7500-0.0833 (   420 PWs)   bands (ev):

    -3.2102   0.0485   2.6442   3.4198   7.7410   9.0054  11.6717  13.4548

          k =-0.2500-0.2500-0.0833 (   412 PWs)   bands (ev):

    -5.2038   3.0838   4.6311   5.6292   8.6488   9.1358   9.4818  11.6016

          k =-0.7500-0.0833-0.2500 (   420 PWs)   bands (ev):

    -3.2102   0.0485   2.6442   3.4198   7.7410   9.0054  11.6717  13.4548

          k =-1.2500-1.0833-0.2500 (   420 PWs)   bands (ev):

    -3.2102   0.0485   2.6442   3.4198   7.7410   9.0054  11.6717  13.4548

          k = 0.7500-0.0833 0.2500 (   420 PWs)   bands (ev):

    -3.2102   0.0485   2.6442   3.4198   7.7410   9.0054  11.6717  13.4548

          k = 0.2500-1.0833 0.2500 (   422 PWs)   bands (ev):

    -2.3063  -0.9617   1.8854   3.6361   7.2731  10.1333  13.0016  13.1741

          k = 0.0833-0.5833-0.0833 (   425 PWs)   bands (ev):

    -4.2751   1.6097   3.6850   3.8959   7.2334   8.7901  11.9342  12.1387

          k =-0.4167-1.5833-0.0833 (   417 PWs)   bands (ev):

    -4.3122   1.2013   3.1526   5.0678   8.7382   9.9575  10.1241  12.0277

          k =-0.5833 0.0833-0.0833 (   425 PWs)   bands (ev):

    -4.2751   1.6097   3.6850   3.8959   7.2334   8.7901  11.9342  12.1387

          k =-1.0833-0.9167-0.0833 (   423 PWs)   bands (ev):

    -2.2915  -1.0561   2.8872   3.2692   6.8169   7.3730  14.9203  15.0002

          k =-0.0833-0.4167 0.4167 (   417 PWs)   bands (ev):

    -4.3122   1.2013   3.1526   5.0678   8.7382   9.9575  10.1241  12.0277

          k =-0.5833-1.4167 0.4167 (   415 PWs)   bands (ev):

    -3.4495  -0.7481   4.2349   4.6322   7.9934   9.2583   9.6787  13.8495

          k = 0.4167-0.4167 0.0833 (   417 PWs)   bands (ev):

    -4.3122   1.2013   3.1526   5.0678   8.7382   9.9575  10.1241  12.0277

          k =-0.0833-1.4167 0.0833 (   425 PWs)   bands (ev):

    -4.2751   1.6097   3.6850   3.8959   7.2334   8.7901  11.9342  12.1387

          k =-0.9167 0.4167-0.4167 (   416 PWs)   bands (ev):

    -3.1567  -0.2171   2.0692   4.2990   8.0297  11.2581  11.3572  13.0568

          k =-1.4167-0.5833-0.4167 (   415 PWs)   bands (ev):

    -3.4495  -0.7481   4.2349   4.6322   7.9934   9.2583   9.6787  13.8495

          k =-0.4167 0.4167 0.9167 (   416 PWs)   bands (ev):

    -3.1567  -0.2171   2.0692   4.2990   8.0297  11.2581  11.3572  13.0568

          k =-0.9167-0.5833 0.9167 (   421 PWs)   bands (ev):

    -4.9670   2.8924   4.4761   4.4915   7.7267   9.8415  10.6255  10.8293

          k =-0.7500 0.2500-0.2500 (   420 PWs)   bands (ev):

    -3.1050  -0.2952   2.5366   3.8271   7.5433  10.4173  11.6261  11.8516

          k =-1.2500-0.7500-0.2500 (   420 PWs)   bands (ev):

    -3.1050  -0.2952   2.5366   3.8271   7.5433  10.4173  11.6261  11.8516

          k =-0.2500 0.2500 0.7500 (   420 PWs)   bands (ev):

    -3.1050  -0.2952   2.5366   3.8271   7.5433  10.4173  11.6261  11.8516

          k =-0.7500-0.7500 0.7500 (   417 PWs)   bands (ev):

    -4.9786   2.1246   5.2354   5.2354   7.9692   9.4695   9.4695  12.7297

          k = 0.2500 0.5833-0.2500 (   421 PWs)   bands (ev):

    -3.8964   0.4098   3.6031   4.1931   8.0104  10.1780  10.8440  11.0083

          k =-0.2500-0.4167-0.2500 (   417 PWs)   bands (ev):

    -4.5361   1.2034   4.6933   4.7248   8.2425   9.2655  10.0485  11.9182

          k = 0.5833 0.2500-0.2500 (   421 PWs)   bands (ev):

    -3.8964   0.4098   3.6031   4.1931   8.0104  10.1780  10.8440  11.0083

          k = 0.0833-0.7500-0.2500 (   420 PWs)   bands (ev):

    -3.2102   0.0485   2.6442   3.4198   7.7410   9.0054  11.6717  13.4548

          k =-1.0833 0.2500-0.5833 (   415 PWs)   bands (ev):

    -2.9140  -0.3317   2.1676   3.4200   9.2104   9.7334  10.6979  13.3777

          k =-1.5833-0.7500-0.5833 (   419 PWs)   bands (ev):

    -3.5782  -0.2595   3.4752   4.4598   8.5558   9.1946  10.4889  12.6840

          k = 1.0833-0.2500 0.5833 (   415 PWs)   bands (ev):

    -2.9140  -0.3317   2.1676   3.4200   9.2104   9.7334  10.6979  13.3777

          k = 0.5833-1.2500 0.5833 (   415 PWs)   bands (ev):

    -4.1325   0.3727   4.1721   5.0043   8.1472   9.5323   9.5729  13.3801

          k =-0.5833 0.2500 1.0833 (   415 PWs)   bands (ev):

    -2.9140  -0.3317   2.1676   3.4200   9.2104   9.7334  10.6979  13.3777

          k =-1.0833-0.7500 1.0833 (   411 PWs)   bands (ev):

    -5.4355   4.0774   5.2070   5.3868   8.2938   9.1511   9.6262  10.7567

          k =-0.2500 1.0833 0.5833 (   415 PWs)   bands (ev):

    -2.9140  -0.3317   2.1676   3.4200   9.2104   9.7334  10.6979  13.3777

          k =-0.7500 0.0833 0.5833 (   415 PWs)   bands (ev):

    -2.5687  -0.7153   1.8572   3.6202   8.1440  11.0045  11.9778  12.6304

          k = 0.2500 1.0833-0.5833 (   415 PWs)   bands (ev):

    -2.9140  -0.3317   2.1676   3.4200   9.2104   9.7334  10.6979  13.3777

          k =-0.2500 0.0833-0.5833 (   415 PWs)   bands (ev):

    -4.0737   1.0842   3.1875   4.1122   8.1209   9.7291  10.4913  11.9283

          k =-0.9167 0.0833-0.4167 (   418 PWs)   bands (ev):

    -2.0994  -1.0566   2.0093   2.7678   9.0129  10.2616  11.0310  12.4029

          k =-1.4167-0.9167-0.4167 (   417 PWs)   bands (ev):

    -3.6872   0.4056   2.5579   4.3655   8.9500   9.5743  11.2265  11.6941

          k = 0.9167-0.0833 0.4167 (   418 PWs)   bands (ev):

    -2.0994  -1.0566   2.0093   2.7678   9.0129  10.2616  11.0310  12.4029

          k = 0.4167-1.0833 0.4167 (   416 PWs)   bands (ev):

    -3.1567  -0.2171   2.0692   4.2990   8.0297  11.2581  11.3572  13.0568

          k =-0.4167 0.0833 0.9167 (   418 PWs)   bands (ev):

    -2.0994  -1.0566   2.0093   2.7678   9.0129  10.2616  11.0310  12.4029

          k =-0.9167-0.9167 0.9167 (   417 PWs)   bands (ev):

    -5.6717   5.1311   5.8370   5.8370   8.5571   8.7440   8.7440   9.8449

          k =-0.0833 0.9167 0.4167 (   418 PWs)   bands (ev):

    -2.0994  -1.0566   2.0093   2.7678   9.0129  10.2616  11.0310  12.4029

          k =-0.5833-0.0833 0.4167 (   417 PWs)   bands (ev):

    -3.6872   0.4056   2.5579   4.3655   8.9500   9.5743  11.2265  11.6941

          k = 0.0833 0.9167-0.4167 (   418 PWs)   bands (ev):

    -2.0994  -1.0566   2.0093   2.7678   9.0129  10.2616  11.0310  12.4029

          k =-0.4167-0.0833-0.4167 (   417 PWs)   bands (ev):

    -4.3122   1.2013   3.1526   5.0678   8.7382   9.9575  10.1241  12.0277

          k = 0.2500-1.0833-0.2500 (   422 PWs)   bands (ev):

    -2.3063  -0.9617   1.8854   3.6361   7.2731  10.1333  13.0016  13.1741

          k =-0.2500-2.0833-0.2500 (   412 PWs)   bands (ev):

    -5.2038   3.0838   4.6311   5.6292   8.6488   9.1358   9.4818  11.6016

          k =-1.0833 0.2500-0.2500 (   422 PWs)   bands (ev):

    -2.3063  -0.9617   1.8854   3.6361   7.2731  10.1333  13.0016  13.1741

          k =-1.5833-0.7500-0.2500 (   419 PWs)   bands (ev):

    -2.9809  -0.6292   2.5952   3.8901   8.3683   9.8947  11.8125  12.1988

          k =-1.2500 0.4167-0.4167 (   414 PWs)   bands (ev):

    -3.2181  -0.6548   3.0590   4.4228   8.1755  10.0084  10.3631  13.8696

          k =-1.7500-0.5833-0.4167 (   419 PWs)   bands (ev):

    -3.5782  -0.2595   3.4752   4.4598   8.5558   9.1946  10.4889  12.6840

          k =-0.4167 0.4167 1.2500 (   414 PWs)   bands (ev):

    -3.2181  -0.6548   3.0590   4.4228   8.1755  10.0084  10.3631  13.8696

          k =-0.9167-0.5833 1.2500 (   416 PWs)   bands (ev):

    -4.7458   2.0739   3.8702   5.0180   8.5931   9.4401  10.4990  10.8692

     highest occupied, lowest unoccupied level (ev):     5.8370    6.8169

     Writing output data file si.save

                                                                                

     bravais-lattice index     =            2
     lattice parameter (alat)  =      10.3463  a.u.
     unit-cell volume          =     276.8823 (a.u.)^3
     number of atoms/cell      =            2
     number of atomic types    =            1
     kinetic-energy cut-off    =      20.0000  Ry
     charge density cut-off    =      80.0000  Ry
     convergence threshold     =      1.0E-14
     beta                      =       0.7000
     number of iterations used =            4
     Exchange-correlation      =  SLA  PW   PBE  PBE ( 1 4 3 4 0)
     EXX-fraction              =        0.00


     celldm(1)=   10.34630  celldm(2)=    0.00000  celldm(3)=    0.00000
     celldm(4)=    0.00000  celldm(5)=    0.00000  celldm(6)=    0.00000

     crystal axes: (cart. coord. in units of alat)
               a(1) = ( -0.5000  0.0000  0.5000 )  
               a(2) = (  0.0000  0.5000  0.5000 )  
               a(3) = ( -0.5000  0.5000  0.0000 )  

     reciprocal axes: (cart. coord. in units 2 pi/alat)
               b(1) = ( -1.0000 -1.0000  1.0000 )  
               b(2) = (  1.0000  1.0000  1.0000 )  
               b(3) = ( -1.0000  1.0000 -1.0000 )  


     Atoms inside the unit cell: 

   Cartesian axes

     site n.  atom      mass           positions (alat units)
        1        Si  28.0860   tau( 1) = (    0.00000    0.00000    0.00000  )
        2        Si  28.0860   tau( 2) = (   -0.25000    0.25000    0.25000  )

     Computing dynamical matrix for 
                    q = (  -0.5000000  -1.0000000   0.0000000 )
 
      8 Sym.Ops. (no q -> -q+G )


     G cutoff =  216.9204  (   3383 G-vectors)     FFT grid: ( 24, 24, 24)
     number of k points=   216

     PseudoPot. # 1 for Si read from file:
     ./tmp/si.save/Si.pbe-rrkj.UPF
     MD5 check sum: cf7ab5690cd9a85b22c4813f7e365554
     Pseudo is Norm-conserving, Zval =  4.0
     Generated by new atomic code, or converted to UPF format
     Using radial grid of  883 points,  3 beta functions with: 
                l(1) =   0
                l(2) =   0
                l(3) =   1


     Atomic displacements:
     There are   3 irreducible representations

     Representation     1      2 modes -A_1  L_1 To be done

     Representation     2      2 modes -A_1  L_1 To be done

     Representation     3      2 modes -E    L_3 To be done



     Alpha used in Ewald sum =   0.8000
     PHONON       : 34m23.33s CPU    35m39.11s WALL



     Representation #  1 modes #   1  2

     Self-consistent Calculation

      iter #   1 total cpu time :  2146.2 secs   av.it.:   6.1
      thresh= 0.100E-01 alpha_mix =  0.700 |ddv_scf|^2 =  0.578E-05

      iter #   2 total cpu time :  2155.3 secs   av.it.:  10.2
      thresh= 0.240E-03 alpha_mix =  0.700 |ddv_scf|^2 =  0.750E-05

      iter #   3 total cpu time :  2163.9 secs   av.it.:   9.5
      thresh= 0.274E-03 alpha_mix =  0.700 |ddv_scf|^2 =  0.154E-08

      iter #   4 total cpu time :  2172.9 secs   av.it.:   9.7
      thresh= 0.392E-05 alpha_mix =  0.700 |ddv_scf|^2 =  0.839E-10

      iter #   5 total cpu time :  2181.4 secs   av.it.:   9.3
      thresh= 0.916E-06 alpha_mix =  0.700 |ddv_scf|^2 =  0.547E-13

      iter #   6 total cpu time :  2190.1 secs   av.it.:   9.6
      thresh= 0.234E-07 alpha_mix =  0.700 |ddv_scf|^2 =  0.324E-14

     End of self-consistent calculation

     Convergence has been achieved 


     Representation #  2 modes #   3  4

     Self-consistent Calculation

      iter #   1 total cpu time :  2197.2 secs   av.it.:   5.9
      thresh= 0.100E-01 alpha_mix =  0.700 |ddv_scf|^2 =  0.175E-05

      iter #   2 total cpu time :  2206.3 secs   av.it.:  10.2
      thresh= 0.132E-03 alpha_mix =  0.700 |ddv_scf|^2 =  0.106E-05

      iter #   3 total cpu time :  2215.1 secs   av.it.:   9.7
      thresh= 0.103E-03 alpha_mix =  0.700 |ddv_scf|^2 =  0.662E-09

      iter #   4 total cpu time :  2223.7 secs   av.it.:   9.5
      thresh= 0.257E-05 alpha_mix =  0.700 |ddv_scf|^2 =  0.133E-10

      iter #   5 total cpu time :  2232.5 secs   av.it.:   9.3
      thresh= 0.365E-06 alpha_mix =  0.700 |ddv_scf|^2 =  0.474E-13

      iter #   6 total cpu time :  2241.7 secs   av.it.:  10.0
      thresh= 0.218E-07 alpha_mix =  0.700 |ddv_scf|^2 =  0.195E-14

     End of self-consistent calculation

     Convergence has been achieved 


     Representation #  3 modes #   5  6

     Self-consistent Calculation

      iter #   1 total cpu time :  2249.1 secs   av.it.:   6.2
      thresh= 0.100E-01 alpha_mix =  0.700 |ddv_scf|^2 =  0.411E-05

      iter #   2 total cpu time :  2258.2 secs   av.it.:  10.2
      thresh= 0.203E-03 alpha_mix =  0.700 |ddv_scf|^2 =  0.262E-05

      iter #   3 total cpu time :  2266.9 secs   av.it.:   9.7
      thresh= 0.162E-03 alpha_mix =  0.700 |ddv_scf|^2 =  0.605E-09

      iter #   4 total cpu time :  2275.3 secs   av.it.:   9.2
      thresh= 0.246E-05 alpha_mix =  0.700 |ddv_scf|^2 =  0.545E-10

      iter #   5 total cpu time :  2283.9 secs   av.it.:   9.5
      thresh= 0.738E-06 alpha_mix =  0.700 |ddv_scf|^2 =  0.333E-13

      iter #   6 total cpu time :  2292.5 secs   av.it.:   9.5
      thresh= 0.182E-07 alpha_mix =  0.700 |ddv_scf|^2 =  0.273E-14

     End of self-consistent calculation

     Convergence has been achieved 
 
     Number of q in the star =    6
     List of q in the star:
          1  -0.500000000  -1.000000000   0.000000000
          2   0.000000000   1.000000000   0.500000000
          3   0.000000000  -1.000000000  -0.500000000
          4   0.500000000   1.000000000   0.000000000
          5  -1.000000000  -0.500000000   0.000000000
          6   0.000000000  -0.500000000  -1.000000000

     Diagonalizing the dynamical matrix

     q = (   -0.500000000  -1.000000000   0.000000000 ) 

 **************************************************************************
     omega( 1) =       6.064232 [THz] =     202.281004 [cm-1]
     omega( 2) =       6.064232 [THz] =     202.281004 [cm-1]
     omega( 3) =      10.275726 [THz] =     342.761327 [cm-1]
     omega( 4) =      10.275726 [THz] =     342.761327 [cm-1]
     omega( 5) =      13.495888 [THz] =     450.174355 [cm-1]
     omega( 6) =      13.495888 [THz] =     450.174355 [cm-1]
 **************************************************************************
 
     init_run     :      0.74s CPU      0.81s WALL (       7 calls)
     electrons    :    238.94s CPU    246.18s WALL (       7 calls)

     Called by init_run:
     wfcinit      :      0.00s CPU      0.00s WALL (       7 calls)
     potinit      :      0.12s CPU      0.13s WALL (       7 calls)

     Called by electrons:
     c_bands      :    238.91s CPU    246.14s WALL (       7 calls)
     v_of_rho     :      0.10s CPU      0.11s WALL (       8 calls)

     Called by c_bands:
     init_us_2    :      8.68s CPU      9.74s WALL (   61420 calls)
     cegterg      :    222.97s CPU    228.12s WALL (    2992 calls)

     Called by *egterg:
     h_psi        :    191.09s CPU    195.69s WALL (   52919 calls)
     g_psi        :      3.07s CPU      3.12s WALL (   47383 calls)
     cdiaghg      :     17.93s CPU     18.44s WALL (   49927 calls)

     Called by h_psi:
     add_vuspsi   :     43.85s CPU     45.66s WALL (  647982 calls)

     General routines
     calbec       :     50.35s CPU     51.77s WALL ( 1287329 calls)
     fft          :      1.97s CPU      2.07s WALL (    3753 calls)
     ffts         :      3.72s CPU      4.01s WALL (    8160 calls)
     fftw         :   1642.90s CPU   1698.77s WALL ( 5755210 calls)
     davcio       :     16.35s CPU     25.40s WALL (  283921 calls)
 
 
     PHONON       : 36m48.12s CPU    38m12.66s WALL

     INITIALIZATION: 
     phq_setup    :      0.34s CPU      0.34s WALL (       8 calls)
     phq_init     :      2.00s CPU      2.20s WALL (       8 calls)
 
     phq_init     :      2.00s CPU      2.20s WALL (       8 calls)
     init_vloc    :      0.01s CPU      0.01s WALL (       8 calls)
     init_us_1    :      0.29s CPU      0.30s WALL (       8 calls)
 
     DYNAMICAL MATRIX:
     dynmat0      :      0.96s CPU      1.04s WALL (       8 calls)
     phqscf       :   1938.44s CPU   2014.56s WALL (       8 calls)
     dynmatrix    :      0.04s CPU      0.05s WALL (       8 calls)
 
     phqscf       :   1938.44s CPU   2014.56s WALL (       8 calls)
     solve_linter :   1934.62s CPU   2010.37s WALL (      32 calls)
     drhodv       :      3.62s CPU      3.95s WALL (      32 calls)
 
     dynmat0      :      0.96s CPU      1.04s WALL (       8 calls)
     dynmat_us    :      0.94s CPU      1.02s WALL (       8 calls)
     d2ionq       :      0.00s CPU      0.01s WALL (       8 calls)
 
     dynmat_us    :      0.94s CPU      1.02s WALL (       8 calls)
 
     phqscf       :   1938.44s CPU   2014.56s WALL (       8 calls)
     solve_linter :   1934.62s CPU   2010.37s WALL (      32 calls)
 
     solve_linter :   1934.62s CPU   2010.37s WALL (      32 calls)
     dvqpsi_us    :     55.70s CPU     57.28s WALL (    7968 calls)
     ortho        :      4.99s CPU      5.19s WALL (   58479 calls)
     cgsolve      :   1554.58s CPU   1602.81s WALL (   58479 calls)
     incdrhoscf   :    169.44s CPU    176.99s WALL (   58395 calls)
     vpsifft      :    136.48s CPU    145.24s WALL (   50091 calls)
     dv_of_drho   :      3.37s CPU      3.46s WALL (     331 calls)
     mix_pot      :      0.70s CPU      1.15s WALL (     229 calls)
     symdvscf     :      1.73s CPU      1.76s WALL (     223 calls)
 
     dvqpsi_us    :     55.70s CPU     57.28s WALL (    7968 calls)
     dvqpsi_us_on :      2.56s CPU      2.46s WALL (    7968 calls)
 
     cgsolve      :   1554.58s CPU   1602.81s WALL (   58479 calls)
     ch_psi       :   1523.70s CPU   1570.08s WALL (  595063 calls)
 
     ch_psi       :   1523.70s CPU   1570.08s WALL (  595063 calls)
     h_psiq       :   1451.55s CPU   1495.77s WALL (  595063 calls)
     last         :     63.86s CPU     66.01s WALL (  595063 calls)
 
     h_psiq       :   1451.55s CPU   1495.77s WALL (  595063 calls)
     firstfft     :    647.96s CPU    668.08s WALL ( 2100519 calls)
     secondfft    :    633.62s CPU    652.03s WALL ( 2100519 calls)
     add_vuspsi   :     43.85s CPU     45.66s WALL (  647982 calls)
 
     incdrhoscf   :    169.44s CPU    176.99s WALL (   58395 calls)
 
 
      General routines
     calbec       :     50.35s CPU     51.77s WALL ( 1287329 calls)
     fft          :      1.97s CPU      2.07s WALL (    3753 calls)
     ffts         :      3.72s CPU      4.01s WALL (    8160 calls)
     fftw         :   1642.90s CPU   1698.77s WALL ( 5755210 calls)
     davcio       :     16.35s CPU     25.40s WALL (  283921 calls)
     write_rec    :      0.97s CPU      1.47s WALL (     261 calls)
 
