
     Program PWSCF v.4.3.2      starts on 23Jun2014 at  3:20:13 

     This program is part of the open-source Quantum ESPRESSO suite
     for quantum simulation of materials; please cite
         "P. Giannozzi et al., J. Phys.:Condens. Matter 21 395502 (2009);
          URL http://www.quantum-espresso.org", 
     in publications or presentations arising from this work. More details at
     http://www.quantum-espresso.org/wiki/index.php/Citing_Quantum-ESPRESSO

     Current dimensions of program PWSCF are:
     Max number of different atomic species (ntypx) = 10
     Max number of k-points (npk) =  40000
     Max angular momentum in pseudopotentials (lmaxx) =  3
     Waiting for input...
     Reading input from stdin
Warning: card   &IONS ignored
Warning: card   / ignored
Warning: card   &CELL ignored
Warning: card   / ignored
 
     G-vector sticks info
     --------------------
     sticks:   dense  smooth     PW     G-vecs:    dense   smooth      PW
     Sum         379     379    121                 4909     4909     941
 


     bravais-lattice index     =            2
     lattice parameter (alat)  =      10.5000  a.u.
     unit-cell volume          =     289.4062 (a.u.)^3
     number of atoms/cell      =            2
     number of atomic types    =            2
     number of electrons       =         8.00
     number of Kohn-Sham states=            4
     kinetic-energy cutoff     =      25.0000  Ry
     charge density cutoff     =     100.0000  Ry
     convergence threshold     =      1.0E-10
     mixing beta               =       0.5000
     number of iterations used =            8  plain     mixing
     Exchange-correlation      =  SLA  PZ   NOGX NOGC ( 1 1 0 0 0)
     EXX-fraction              =        0.00

     celldm(1)=  10.500000  celldm(2)=   0.000000  celldm(3)=   0.000000
     celldm(4)=   0.000000  celldm(5)=   0.000000  celldm(6)=   0.000000

     crystal axes: (cart. coord. in units of alat)
               a(1) = (  -0.500000   0.000000   0.500000 )  
               a(2) = (   0.000000   0.500000   0.500000 )  
               a(3) = (  -0.500000   0.500000   0.000000 )  

     reciprocal axes: (cart. coord. in units 2 pi/alat)
               b(1) = ( -1.000000 -1.000000  1.000000 )  
               b(2) = (  1.000000  1.000000  1.000000 )  
               b(3) = ( -1.000000  1.000000 -1.000000 )  


     PseudoPot. # 1 for Al read from file:
     ../../pseudo/Al.pz-vbc.UPF
     MD5 check sum: 614279c88ff8d45c90147292d03ed420
     Pseudo is Norm-conserving, Zval =  3.0
     Generated by new atomic code, or converted to UPF format
     Using radial grid of  171 points,  2 beta functions with: 
                l(1) =   0
                l(2) =   1

     PseudoPot. # 2 for As read from file:
     ../../pseudo/As.pz-bhs.UPF
     MD5 check sum: 451cd3365afcfc94d28b1934951c34a8
     Pseudo is Norm-conserving, Zval =  5.0
     Generated by new atomic code, or converted to UPF format
     Using radial grid of  525 points,  2 beta functions with: 
                l(1) =   0
                l(2) =   1

     atomic species   valence    mass     pseudopotential
        Al             3.00    26.98000     Al( 1.00)
        As             5.00    74.92000     As( 1.00)

     24 Sym.Ops. (no inversion)


   Cartesian axes

     site n.     atom                  positions (alat units)
         1           Al  tau(   1) = (   0.0000000   0.0000000   0.0000000  )
         2           As  tau(   2) = (   0.2500000   0.2500000   0.2500000  )

     number of k points=    10
                       cart. coord. in units 2pi/alat
        k(    1) = (  -0.1250000   0.1250000   0.1250000), wk =   0.0625000
        k(    2) = (  -0.3750000   0.3750000  -0.1250000), wk =   0.1875000
        k(    3) = (   0.3750000  -0.3750000   0.6250000), wk =   0.1875000
        k(    4) = (   0.1250000  -0.1250000   0.3750000), wk =   0.1875000
        k(    5) = (  -0.1250000   0.6250000   0.1250000), wk =   0.1875000
        k(    6) = (   0.6250000  -0.1250000   0.8750000), wk =   0.3750000
        k(    7) = (   0.3750000   0.1250000   0.6250000), wk =   0.3750000
        k(    8) = (  -0.1250000  -0.8750000   0.1250000), wk =   0.1875000
        k(    9) = (  -0.3750000   0.3750000   0.3750000), wk =   0.0625000
        k(   10) = (   0.3750000  -0.3750000   1.1250000), wk =   0.1875000

     Dense  grid:     4909 G-vectors     FFT dimensions: (  24,  24,  24)

     Largest allocated arrays     est. size (Mb)     dimensions
        Kohn-Sham Wavefunctions         0.04 Mb     (    615,    4)
        NL pseudopotentials             0.08 Mb     (    615,    8)
        Each V/rho on FFT grid          0.21 Mb     (  13824)
        Each G-vector array             0.04 Mb     (   4909)
        G-vector shells                 0.00 Mb     (     95)
     Largest temporary arrays     est. size (Mb)     dimensions
        Auxiliary wavefunctions         0.15 Mb     (    615,   16)
        Each subspace H/S matrix        0.00 Mb     (  16,  16)
        Each <psi_i|beta_j> matrix      0.00 Mb     (      8,    4)
        Arrays for rho mixing           1.69 Mb     (  13824,   8)

     Initial potential from superposition of free atoms

     starting charge    7.99774, renormalised to    8.00000
     Starting wfc are    8 atomic wfcs

     total cpu time spent up to now is        0.2 secs

     per-process dynamical memory:     3.1 Mb

     Self-consistent Calculation

     iteration #  1     ecut=    25.00 Ry     beta=0.50
     Davidson diagonalization with overlap
     ethr =  1.00E-02,  avg # of iterations =  2.0

     Threshold (ethr) on eigenvalues was too large:
     Diagonalizing with lowered threshold

     Davidson diagonalization with overlap
     ethr =  8.85E-04,  avg # of iterations =  1.6

     total cpu time spent up to now is        0.4 secs

     total energy              =     -17.00740297 Ry
     Harris-Foulkes estimate   =     -17.03328898 Ry
     estimated scf accuracy    <       0.07063424 Ry

     iteration #  2     ecut=    25.00 Ry     beta=0.50
     Davidson diagonalization with overlap
     ethr =  8.83E-04,  avg # of iterations =  1.6

     total cpu time spent up to now is        0.5 secs

     total energy              =     -17.01251408 Ry
     Harris-Foulkes estimate   =     -17.01371771 Ry
     estimated scf accuracy    <       0.00715889 Ry

     iteration #  3     ecut=    25.00 Ry     beta=0.50
     Davidson diagonalization with overlap
     ethr =  8.95E-05,  avg # of iterations =  2.8

     total cpu time spent up to now is        0.6 secs

     total energy              =     -17.01341826 Ry
     Harris-Foulkes estimate   =     -17.01360825 Ry
     estimated scf accuracy    <       0.00087781 Ry

     iteration #  4     ecut=    25.00 Ry     beta=0.50
     Davidson diagonalization with overlap
     ethr =  1.10E-05,  avg # of iterations =  2.0

     total cpu time spent up to now is        0.7 secs

     total energy              =     -17.01349088 Ry
     Harris-Foulkes estimate   =     -17.01350044 Ry
     estimated scf accuracy    <       0.00001775 Ry

     iteration #  5     ecut=    25.00 Ry     beta=0.50
     Davidson diagonalization with overlap
     ethr =  2.22E-07,  avg # of iterations =  3.0

     total cpu time spent up to now is        0.8 secs

     total energy              =     -17.01350071 Ry
     Harris-Foulkes estimate   =     -17.01350166 Ry
     estimated scf accuracy    <       0.00000189 Ry

     iteration #  6     ecut=    25.00 Ry     beta=0.50
     Davidson diagonalization with overlap
     ethr =  2.37E-08,  avg # of iterations =  2.4

     total cpu time spent up to now is        0.9 secs

     total energy              =     -17.01350097 Ry
     Harris-Foulkes estimate   =     -17.01350135 Ry
     estimated scf accuracy    <       0.00000070 Ry

     iteration #  7     ecut=    25.00 Ry     beta=0.50
     Davidson diagonalization with overlap
     ethr =  8.71E-09,  avg # of iterations =  2.0

     total cpu time spent up to now is        1.1 secs

     total energy              =     -17.01350110 Ry
     Harris-Foulkes estimate   =     -17.01350110 Ry
     estimated scf accuracy    <          1.7E-09 Ry

     iteration #  8     ecut=    25.00 Ry     beta=0.50
     Davidson diagonalization with overlap
     ethr =  2.08E-11,  avg # of iterations =  4.0

     total cpu time spent up to now is        1.2 secs

     total energy              =     -17.01350110 Ry
     Harris-Foulkes estimate   =     -17.01350110 Ry
     estimated scf accuracy    <          7.1E-10 Ry

     iteration #  9     ecut=    25.00 Ry     beta=0.50
     Davidson diagonalization with overlap
     ethr =  8.85E-12,  avg # of iterations =  1.8

     total cpu time spent up to now is        1.3 secs

     End of self-consistent calculation

          k =-0.1250 0.1250 0.1250 (   603 PWs)   bands (ev):

    -6.8481   3.7046   4.9562   4.9562

          k =-0.3750 0.3750-0.1250 (   611 PWs)   bands (ev):

    -6.0762   1.0508   3.3931   4.6321

          k = 0.3750-0.3750 0.6250 (   606 PWs)   bands (ev):

    -5.4143  -0.4738   3.3777   4.0029

          k = 0.1250-0.1250 0.3750 (   604 PWs)   bands (ev):

    -6.4364   2.2090   4.2079   4.2586

          k =-0.1250 0.6250 0.1250 (   610 PWs)   bands (ev):

    -5.7100   0.8043   3.0806   3.4541

          k = 0.6250-0.1250 0.8750 (   613 PWs)   bands (ev):

    -4.9637  -0.1239   1.7402   2.8172

          k = 0.3750 0.1250 0.6250 (   614 PWs)   bands (ev):

    -5.4787   0.2013   2.4720   3.7169

          k =-0.1250-0.8750 0.1250 (   615 PWs)   bands (ev):

    -4.9998  -0.2298   2.3679   3.0299

          k =-0.3750 0.3750 0.3750 (   607 PWs)   bands (ev):

    -5.8026   0.0071   4.3816   4.3816

          k = 0.3750-0.3750 1.1250 (   614 PWs)   bands (ev):

    -5.1623  -0.1659   1.8195   3.7372

!    total energy              =     -17.01350110 Ry
     Harris-Foulkes estimate   =     -17.01350110 Ry
     estimated scf accuracy    <          5.5E-11 Ry

     The total energy is the sum of the following terms:

     one-electron contribution =       3.40723340 Ry
     hartree contribution      =       1.54893984 Ry
     xc contribution           =      -4.83220864 Ry
     ewald contribution        =     -17.13746570 Ry

     convergence has been achieved in   9 iterations

     Forces acting on atoms (Ry/au):

     atom    1 type  1   force =     0.00000000    0.00000000    0.00000000
     atom    2 type  2   force =     0.00000000    0.00000000    0.00000000

     Total force =     0.000000     Total SCF correction =     0.000000


     entering subroutine stress ...

          total   stress  (Ry/bohr**3)                   (kbar)     P=   16.90
   0.00011490   0.00000000   0.00000000         16.90      0.00      0.00
   0.00000000   0.00011490   0.00000000          0.00     16.90      0.00
   0.00000000   0.00000000   0.00011490          0.00      0.00     16.90


     Writing output data file alas.save
 
     init_run     :      0.12s CPU      0.13s WALL (       1 calls)
     electrons    :      1.14s CPU      1.15s WALL (       1 calls)
     forces       :      0.00s CPU      0.01s WALL (       1 calls)
     stress       :      0.03s CPU      0.04s WALL (       1 calls)

     Called by init_run:
     wfcinit      :      0.06s CPU      0.06s WALL (       1 calls)
     potinit      :      0.00s CPU      0.01s WALL (       1 calls)

     Called by electrons:
     c_bands      :      0.90s CPU      0.91s WALL (      10 calls)
     sum_band     :      0.18s CPU      0.18s WALL (      10 calls)
     v_of_rho     :      0.02s CPU      0.02s WALL (      10 calls)
     mix_rho      :      0.02s CPU      0.02s WALL (      10 calls)

     Called by c_bands:
     init_us_2    :      0.05s CPU      0.05s WALL (     230 calls)
     cegterg      :      0.85s CPU      0.87s WALL (     100 calls)

     Called by *egterg:
     h_psi        :      0.81s CPU      0.81s WALL (     342 calls)
     g_psi        :      0.02s CPU      0.01s WALL (     232 calls)
     cdiaghg      :      0.02s CPU      0.03s WALL (     322 calls)

     Called by h_psi:
     add_vuspsi   :      0.02s CPU      0.01s WALL (     342 calls)

     General routines
     calbec       :      0.01s CPU      0.02s WALL (     362 calls)
     fft          :      0.02s CPU      0.02s WALL (      46 calls)
     fftw         :      0.81s CPU      0.81s WALL (    2812 calls)
     davcio       :      0.00s CPU      0.01s WALL (     330 calls)
 
 
     PWSCF        :     1.38s CPU         1.44s WALL

 
   This run was terminated on:   3:20:15  23Jun2014            

=------------------------------------------------------------------------------=
   JOB DONE.
=------------------------------------------------------------------------------=
