
     Program PWSCF v.4.3.2      starts on 23Jun2014 at  3:25:36 

     This program is part of the open-source Quantum ESPRESSO suite
     for quantum simulation of materials; please cite
         "P. Giannozzi et al., J. Phys.:Condens. Matter 21 395502 (2009);
          URL http://www.quantum-espresso.org", 
     in publications or presentations arising from this work. More details at
     http://www.quantum-espresso.org/wiki/index.php/Citing_Quantum-ESPRESSO

     Current dimensions of program PWSCF are:
     Max number of different atomic species (ntypx) = 10
     Max number of k-points (npk) =  40000
     Max angular momentum in pseudopotentials (lmaxx) =  3
     Waiting for input...
     Reading input from stdin
Warning: card   &IONS ignored
Warning: card   / ignored
Warning: card   &CELL ignored
Warning: card   / ignored
 
     G-vector sticks info
     --------------------
     sticks:   dense  smooth     PW     G-vecs:    dense   smooth      PW
     Sum         847     847    253                16049    16049    2685
 


     bravais-lattice index     =            2
     lattice parameter (alat)  =      10.5000  a.u.
     unit-cell volume          =     289.4062 (a.u.)^3
     number of atoms/cell      =            2
     number of atomic types    =            2
     number of electrons       =         8.00
     number of Kohn-Sham states=            4
     kinetic-energy cutoff     =      55.0000  Ry
     charge density cutoff     =     220.0000  Ry
     convergence threshold     =      1.0E-10
     mixing beta               =       0.5000
     number of iterations used =            8  plain     mixing
     Exchange-correlation      =  SLA  PZ   NOGX NOGC ( 1 1 0 0 0)
     EXX-fraction              =        0.00

     celldm(1)=  10.500000  celldm(2)=   0.000000  celldm(3)=   0.000000
     celldm(4)=   0.000000  celldm(5)=   0.000000  celldm(6)=   0.000000

     crystal axes: (cart. coord. in units of alat)
               a(1) = (  -0.500000   0.000000   0.500000 )  
               a(2) = (   0.000000   0.500000   0.500000 )  
               a(3) = (  -0.500000   0.500000   0.000000 )  

     reciprocal axes: (cart. coord. in units 2 pi/alat)
               b(1) = ( -1.000000 -1.000000  1.000000 )  
               b(2) = (  1.000000  1.000000  1.000000 )  
               b(3) = ( -1.000000  1.000000 -1.000000 )  


     PseudoPot. # 1 for Al read from file:
     ../../pseudo/Al.pz-vbc.UPF
     MD5 check sum: 614279c88ff8d45c90147292d03ed420
     Pseudo is Norm-conserving, Zval =  3.0
     Generated by new atomic code, or converted to UPF format
     Using radial grid of  171 points,  2 beta functions with: 
                l(1) =   0
                l(2) =   1

     PseudoPot. # 2 for As read from file:
     ../../pseudo/As.pz-bhs.UPF
     MD5 check sum: 451cd3365afcfc94d28b1934951c34a8
     Pseudo is Norm-conserving, Zval =  5.0
     Generated by new atomic code, or converted to UPF format
     Using radial grid of  525 points,  2 beta functions with: 
                l(1) =   0
                l(2) =   1

     atomic species   valence    mass     pseudopotential
        Al             3.00    26.98000     Al( 1.00)
        As             5.00    74.92000     As( 1.00)

     24 Sym.Ops. (no inversion)


   Cartesian axes

     site n.     atom                  positions (alat units)
         1           Al  tau(   1) = (   0.0000000   0.0000000   0.0000000  )
         2           As  tau(   2) = (   0.2500000   0.2500000   0.2500000  )

     number of k points=    10
                       cart. coord. in units 2pi/alat
        k(    1) = (  -0.1250000   0.1250000   0.1250000), wk =   0.0625000
        k(    2) = (  -0.3750000   0.3750000  -0.1250000), wk =   0.1875000
        k(    3) = (   0.3750000  -0.3750000   0.6250000), wk =   0.1875000
        k(    4) = (   0.1250000  -0.1250000   0.3750000), wk =   0.1875000
        k(    5) = (  -0.1250000   0.6250000   0.1250000), wk =   0.1875000
        k(    6) = (   0.6250000  -0.1250000   0.8750000), wk =   0.3750000
        k(    7) = (   0.3750000   0.1250000   0.6250000), wk =   0.3750000
        k(    8) = (  -0.1250000  -0.8750000   0.1250000), wk =   0.1875000
        k(    9) = (  -0.3750000   0.3750000   0.3750000), wk =   0.0625000
        k(   10) = (   0.3750000  -0.3750000   1.1250000), wk =   0.1875000

     Dense  grid:    16049 G-vectors     FFT dimensions: (  36,  36,  36)

     Largest allocated arrays     est. size (Mb)     dimensions
        Kohn-Sham Wavefunctions         0.12 Mb     (   2003,    4)
        NL pseudopotentials             0.24 Mb     (   2003,    8)
        Each V/rho on FFT grid          0.71 Mb     (  46656)
        Each G-vector array             0.12 Mb     (  16049)
        G-vector shells                 0.00 Mb     (    207)
     Largest temporary arrays     est. size (Mb)     dimensions
        Auxiliary wavefunctions         0.49 Mb     (   2003,   16)
        Each subspace H/S matrix        0.00 Mb     (  16,  16)
        Each <psi_i|beta_j> matrix      0.00 Mb     (      8,    4)
        Arrays for rho mixing           5.70 Mb     (  46656,   8)

     Initial potential from superposition of free atoms

     starting charge    7.99774, renormalised to    8.00000
     Starting wfc are    8 atomic wfcs

     total cpu time spent up to now is        0.4 secs

     per-process dynamical memory:     9.1 Mb

     Self-consistent Calculation

     iteration #  1     ecut=    55.00 Ry     beta=0.50
     Davidson diagonalization with overlap
     ethr =  1.00E-02,  avg # of iterations =  2.0

     total cpu time spent up to now is        0.8 secs

     total energy              =     -16.99571091 Ry
     Harris-Foulkes estimate   =     -17.02927432 Ry
     estimated scf accuracy    <       0.08613137 Ry

     iteration #  2     ecut=    55.00 Ry     beta=0.50
     Davidson diagonalization with overlap
     ethr =  1.08E-03,  avg # of iterations =  2.9

     total cpu time spent up to now is        1.3 secs

     total energy              =     -17.01879838 Ry
     Harris-Foulkes estimate   =     -17.02026750 Ry
     estimated scf accuracy    <       0.00883090 Ry

     iteration #  3     ecut=    55.00 Ry     beta=0.50
     Davidson diagonalization with overlap
     ethr =  1.10E-04,  avg # of iterations =  1.4

     total cpu time spent up to now is        1.7 secs

     total energy              =     -17.01907224 Ry
     Harris-Foulkes estimate   =     -17.01923776 Ry
     estimated scf accuracy    <       0.00170710 Ry

     iteration #  4     ecut=    55.00 Ry     beta=0.50
     Davidson diagonalization with overlap
     ethr =  2.13E-05,  avg # of iterations =  1.9

     total cpu time spent up to now is        2.0 secs

     total energy              =     -17.01920232 Ry
     Harris-Foulkes estimate   =     -17.01925771 Ry
     estimated scf accuracy    <       0.00009962 Ry

     iteration #  5     ecut=    55.00 Ry     beta=0.50
     Davidson diagonalization with overlap
     ethr =  1.25E-06,  avg # of iterations =  2.8

     total cpu time spent up to now is        2.5 secs

     total energy              =     -17.01923291 Ry
     Harris-Foulkes estimate   =     -17.01923268 Ry
     estimated scf accuracy    <       0.00000135 Ry

     iteration #  6     ecut=    55.00 Ry     beta=0.50
     Davidson diagonalization with overlap
     ethr =  1.68E-08,  avg # of iterations =  3.0

     total cpu time spent up to now is        3.0 secs

     total energy              =     -17.01923336 Ry
     Harris-Foulkes estimate   =     -17.01923351 Ry
     estimated scf accuracy    <       0.00000035 Ry

     iteration #  7     ecut=    55.00 Ry     beta=0.50
     Davidson diagonalization with overlap
     ethr =  4.36E-09,  avg # of iterations =  2.1

     total cpu time spent up to now is        3.5 secs

     total energy              =     -17.01923340 Ry
     Harris-Foulkes estimate   =     -17.01923341 Ry
     estimated scf accuracy    <       0.00000002 Ry

     iteration #  8     ecut=    55.00 Ry     beta=0.50
     Davidson diagonalization with overlap
     ethr =  2.70E-10,  avg # of iterations =  3.1

     total cpu time spent up to now is        4.0 secs

     total energy              =     -17.01923340 Ry
     Harris-Foulkes estimate   =     -17.01923342 Ry
     estimated scf accuracy    <       0.00000003 Ry

     iteration #  9     ecut=    55.00 Ry     beta=0.50
     Davidson diagonalization with overlap
     ethr =  2.70E-10,  avg # of iterations =  2.0

     total cpu time spent up to now is        4.5 secs

     total energy              =     -17.01923341 Ry
     Harris-Foulkes estimate   =     -17.01923341 Ry
     estimated scf accuracy    <          3.9E-10 Ry

     iteration # 10     ecut=    55.00 Ry     beta=0.50
     Davidson diagonalization with overlap
     ethr =  4.86E-12,  avg # of iterations =  2.0

     total cpu time spent up to now is        4.9 secs

     End of self-consistent calculation

          k =-0.1250 0.1250 0.1250 (  1995 PWs)   bands (ev):

    -6.8656   3.6987   4.9581   4.9581

          k =-0.3750 0.3750-0.1250 (  1991 PWs)   bands (ev):

    -6.0955   1.0440   3.3926   4.6336

          k = 0.3750-0.3750 0.6250 (  1989 PWs)   bands (ev):

    -5.4366  -0.4775   3.3760   4.0040

          k = 0.1250-0.1250 0.3750 (  1990 PWs)   bands (ev):

    -6.4547   2.2006   4.2089   4.2584

          k =-0.1250 0.6250 0.1250 (  2001 PWs)   bands (ev):

    -5.7305   0.7965   3.0803   3.4548

          k = 0.6250-0.1250 0.8750 (  1992 PWs)   bands (ev):

    -4.9880  -0.1284   1.7397   2.8173

          k = 0.3750 0.1250 0.6250 (  1998 PWs)   bands (ev):

    -5.5001   0.1957   2.4710   3.7174

          k =-0.1250-0.8750 0.1250 (  2003 PWs)   bands (ev):

    -5.0237  -0.2347   2.3679   3.0305

          k =-0.3750 0.3750 0.3750 (  2000 PWs)   bands (ev):

    -5.8231   0.0022   4.3828   4.3828

          k = 0.3750-0.3750 1.1250 (  1992 PWs)   bands (ev):

    -5.1855  -0.1702   1.8184   3.7379

!    total energy              =     -17.01923341 Ry
     Harris-Foulkes estimate   =     -17.01923341 Ry
     estimated scf accuracy    <          1.8E-11 Ry

     The total energy is the sum of the following terms:

     one-electron contribution =       3.40008294 Ry
     hartree contribution      =       1.55082724 Ry
     xc contribution           =      -4.83267789 Ry
     ewald contribution        =     -17.13746570 Ry

     convergence has been achieved in  10 iterations

     Forces acting on atoms (Ry/au):

     atom    1 type  1   force =     0.00000000    0.00000000    0.00000000
     atom    2 type  2   force =     0.00000000    0.00000000    0.00000000

     Total force =     0.000000     Total SCF correction =     0.000000


     entering subroutine stress ...

          total   stress  (Ry/bohr**3)                   (kbar)     P=   21.18
   0.00014394   0.00000000   0.00000000         21.18      0.00      0.00
   0.00000000   0.00014394   0.00000000          0.00     21.18      0.00
   0.00000000   0.00000000   0.00014394          0.00      0.00     21.18


     Writing output data file alas.save
 
     init_run     :      0.33s CPU      0.34s WALL (       1 calls)
     electrons    :      4.33s CPU      4.54s WALL (       1 calls)
     forces       :      0.03s CPU      0.03s WALL (       1 calls)
     stress       :      0.14s CPU      0.14s WALL (       1 calls)

     Called by init_run:
     wfcinit      :      0.22s CPU      0.23s WALL (       1 calls)
     potinit      :      0.02s CPU      0.02s WALL (       1 calls)

     Called by electrons:
     c_bands      :      3.45s CPU      3.59s WALL (      10 calls)
     sum_band     :      0.68s CPU      0.72s WALL (      10 calls)
     v_of_rho     :      0.08s CPU      0.09s WALL (      11 calls)
     mix_rho      :      0.07s CPU      0.08s WALL (      10 calls)

     Called by c_bands:
     init_us_2    :      0.17s CPU      0.17s WALL (     230 calls)
     cegterg      :      3.32s CPU      3.44s WALL (     100 calls)

     Called by *egterg:
     h_psi        :      3.15s CPU      3.29s WALL (     342 calls)
     g_psi        :      0.05s CPU      0.05s WALL (     232 calls)
     cdiaghg      :      0.04s CPU      0.04s WALL (     332 calls)

     Called by h_psi:
     add_vuspsi   :      0.04s CPU      0.05s WALL (     342 calls)

     General routines
     calbec       :      0.10s CPU      0.07s WALL (     362 calls)
     fft          :      0.08s CPU      0.09s WALL (      48 calls)
     fftw         :      3.04s CPU      3.21s WALL (    2922 calls)
     davcio       :      0.03s CPU      0.04s WALL (     330 calls)
 
 
     PWSCF        :     4.93s CPU         5.17s WALL

 
   This run was terminated on:   3:25:41  23Jun2014            

=------------------------------------------------------------------------------=
   JOB DONE.
=------------------------------------------------------------------------------=
