
     Program PWSCF v.4.3.2      starts on 23Jun2014 at  3:20:12 

     This program is part of the open-source Quantum ESPRESSO suite
     for quantum simulation of materials; please cite
         "P. Giannozzi et al., J. Phys.:Condens. Matter 21 395502 (2009);
          URL http://www.quantum-espresso.org", 
     in publications or presentations arising from this work. More details at
     http://www.quantum-espresso.org/wiki/index.php/Citing_Quantum-ESPRESSO

     Current dimensions of program PWSCF are:
     Max number of different atomic species (ntypx) = 10
     Max number of k-points (npk) =  40000
     Max angular momentum in pseudopotentials (lmaxx) =  3
     Waiting for input...
     Reading input from stdin
Warning: card   &IONS ignored
Warning: card   / ignored
Warning: card   &CELL ignored
Warning: card   / ignored
 
     G-vector sticks info
     --------------------
     sticks:   dense  smooth     PW     G-vecs:    dense   smooth      PW
     Sum         301     301    109                 3479     3479     701
 


     bravais-lattice index     =            2
     lattice parameter (alat)  =      10.5000  a.u.
     unit-cell volume          =     289.4062 (a.u.)^3
     number of atoms/cell      =            2
     number of atomic types    =            2
     number of electrons       =         8.00
     number of Kohn-Sham states=            4
     kinetic-energy cutoff     =      20.0000  Ry
     charge density cutoff     =      80.0000  Ry
     convergence threshold     =      1.0E-10
     mixing beta               =       0.5000
     number of iterations used =            8  plain     mixing
     Exchange-correlation      =  SLA  PZ   NOGX NOGC ( 1 1 0 0 0)
     EXX-fraction              =        0.00

     celldm(1)=  10.500000  celldm(2)=   0.000000  celldm(3)=   0.000000
     celldm(4)=   0.000000  celldm(5)=   0.000000  celldm(6)=   0.000000

     crystal axes: (cart. coord. in units of alat)
               a(1) = (  -0.500000   0.000000   0.500000 )  
               a(2) = (   0.000000   0.500000   0.500000 )  
               a(3) = (  -0.500000   0.500000   0.000000 )  

     reciprocal axes: (cart. coord. in units 2 pi/alat)
               b(1) = ( -1.000000 -1.000000  1.000000 )  
               b(2) = (  1.000000  1.000000  1.000000 )  
               b(3) = ( -1.000000  1.000000 -1.000000 )  


     PseudoPot. # 1 for Al read from file:
     ../../pseudo/Al.pz-vbc.UPF
     MD5 check sum: 614279c88ff8d45c90147292d03ed420
     Pseudo is Norm-conserving, Zval =  3.0
     Generated by new atomic code, or converted to UPF format
     Using radial grid of  171 points,  2 beta functions with: 
                l(1) =   0
                l(2) =   1

     PseudoPot. # 2 for As read from file:
     ../../pseudo/As.pz-bhs.UPF
     MD5 check sum: 451cd3365afcfc94d28b1934951c34a8
     Pseudo is Norm-conserving, Zval =  5.0
     Generated by new atomic code, or converted to UPF format
     Using radial grid of  525 points,  2 beta functions with: 
                l(1) =   0
                l(2) =   1

     atomic species   valence    mass     pseudopotential
        Al             3.00    26.98000     Al( 1.00)
        As             5.00    74.92000     As( 1.00)

     24 Sym.Ops. (no inversion)


   Cartesian axes

     site n.     atom                  positions (alat units)
         1           Al  tau(   1) = (   0.0000000   0.0000000   0.0000000  )
         2           As  tau(   2) = (   0.2500000   0.2500000   0.2500000  )

     number of k points=    10
                       cart. coord. in units 2pi/alat
        k(    1) = (  -0.1250000   0.1250000   0.1250000), wk =   0.0625000
        k(    2) = (  -0.3750000   0.3750000  -0.1250000), wk =   0.1875000
        k(    3) = (   0.3750000  -0.3750000   0.6250000), wk =   0.1875000
        k(    4) = (   0.1250000  -0.1250000   0.3750000), wk =   0.1875000
        k(    5) = (  -0.1250000   0.6250000   0.1250000), wk =   0.1875000
        k(    6) = (   0.6250000  -0.1250000   0.8750000), wk =   0.3750000
        k(    7) = (   0.3750000   0.1250000   0.6250000), wk =   0.3750000
        k(    8) = (  -0.1250000  -0.8750000   0.1250000), wk =   0.1875000
        k(    9) = (  -0.3750000   0.3750000   0.3750000), wk =   0.0625000
        k(   10) = (   0.3750000  -0.3750000   1.1250000), wk =   0.1875000

     Dense  grid:     3479 G-vectors     FFT dimensions: (  24,  24,  24)

     Largest allocated arrays     est. size (Mb)     dimensions
        Kohn-Sham Wavefunctions         0.03 Mb     (    445,    4)
        NL pseudopotentials             0.05 Mb     (    445,    8)
        Each V/rho on FFT grid          0.21 Mb     (  13824)
        Each G-vector array             0.03 Mb     (   3479)
        G-vector shells                 0.00 Mb     (     76)
     Largest temporary arrays     est. size (Mb)     dimensions
        Auxiliary wavefunctions         0.11 Mb     (    445,   16)
        Each subspace H/S matrix        0.00 Mb     (  16,  16)
        Each <psi_i|beta_j> matrix      0.00 Mb     (      8,    4)
        Arrays for rho mixing           1.69 Mb     (  13824,   8)

     Initial potential from superposition of free atoms

     starting charge    7.99774, renormalised to    8.00000
     Starting wfc are    8 atomic wfcs

     total cpu time spent up to now is        0.1 secs

     per-process dynamical memory:     2.6 Mb

     Self-consistent Calculation

     iteration #  1     ecut=    20.00 Ry     beta=0.50
     Davidson diagonalization with overlap
     ethr =  1.00E-02,  avg # of iterations =  2.0

     Threshold (ethr) on eigenvalues was too large:
     Diagonalizing with lowered threshold

     Davidson diagonalization with overlap
     ethr =  8.74E-04,  avg # of iterations =  1.6

     total cpu time spent up to now is        0.3 secs

     total energy              =     -17.00438385 Ry
     Harris-Foulkes estimate   =     -17.02974341 Ry
     estimated scf accuracy    <       0.06985500 Ry

     iteration #  2     ecut=    20.00 Ry     beta=0.50
     Davidson diagonalization with overlap
     ethr =  8.73E-04,  avg # of iterations =  1.6

     total cpu time spent up to now is        0.4 secs

     total energy              =     -17.00906692 Ry
     Harris-Foulkes estimate   =     -17.01031288 Ry
     estimated scf accuracy    <       0.00720729 Ry

     iteration #  3     ecut=    20.00 Ry     beta=0.50
     Davidson diagonalization with overlap
     ethr =  9.01E-05,  avg # of iterations =  2.8

     total cpu time spent up to now is        0.5 secs

     total energy              =     -17.01007111 Ry
     Harris-Foulkes estimate   =     -17.01031315 Ry
     estimated scf accuracy    <       0.00091061 Ry

     iteration #  4     ecut=    20.00 Ry     beta=0.50
     Davidson diagonalization with overlap
     ethr =  1.14E-05,  avg # of iterations =  2.0

     total cpu time spent up to now is        0.6 secs

     total energy              =     -17.01016669 Ry
     Harris-Foulkes estimate   =     -17.01019437 Ry
     estimated scf accuracy    <       0.00006766 Ry

     iteration #  5     ecut=    20.00 Ry     beta=0.50
     Davidson diagonalization with overlap
     ethr =  8.46E-07,  avg # of iterations =  2.9

     total cpu time spent up to now is        0.7 secs

     total energy              =     -17.01016597 Ry
     Harris-Foulkes estimate   =     -17.01018001 Ry
     estimated scf accuracy    <       0.00002054 Ry

     iteration #  6     ecut=    20.00 Ry     beta=0.50
     Davidson diagonalization with overlap
     ethr =  2.57E-07,  avg # of iterations =  3.0

     total cpu time spent up to now is        0.9 secs

     total energy              =     -17.01017185 Ry
     Harris-Foulkes estimate   =     -17.01017727 Ry
     estimated scf accuracy    <       0.00001136 Ry

     iteration #  7     ecut=    20.00 Ry     beta=0.50
     Davidson diagonalization with overlap
     ethr =  1.42E-07,  avg # of iterations =  2.0

     total cpu time spent up to now is        1.0 secs

     total energy              =     -17.01017296 Ry
     Harris-Foulkes estimate   =     -17.01017318 Ry
     estimated scf accuracy    <       0.00000052 Ry

     iteration #  8     ecut=    20.00 Ry     beta=0.50
     Davidson diagonalization with overlap
     ethr =  6.46E-09,  avg # of iterations =  3.0

     total cpu time spent up to now is        1.1 secs

     total energy              =     -17.01017314 Ry
     Harris-Foulkes estimate   =     -17.01017314 Ry
     estimated scf accuracy    <          7.1E-09 Ry

     iteration #  9     ecut=    20.00 Ry     beta=0.50
     Davidson diagonalization with overlap
     ethr =  8.93E-11,  avg # of iterations =  2.9

     total cpu time spent up to now is        1.2 secs

     total energy              =     -17.01017314 Ry
     Harris-Foulkes estimate   =     -17.01017314 Ry
     estimated scf accuracy    <          4.2E-09 Ry

     iteration # 10     ecut=    20.00 Ry     beta=0.50
     Davidson diagonalization with overlap
     ethr =  5.23E-11,  avg # of iterations =  1.2

     total cpu time spent up to now is        1.3 secs

     total energy              =     -17.01017314 Ry
     Harris-Foulkes estimate   =     -17.01017314 Ry
     estimated scf accuracy    <          8.2E-10 Ry

     iteration # 11     ecut=    20.00 Ry     beta=0.50
     Davidson diagonalization with overlap
     ethr =  1.03E-11,  avg # of iterations =  2.4

     total cpu time spent up to now is        1.4 secs

     total energy              =     -17.01017314 Ry
     Harris-Foulkes estimate   =     -17.01017314 Ry
     estimated scf accuracy    <          1.1E-10 Ry

     iteration # 12     ecut=    20.00 Ry     beta=0.50
     Davidson diagonalization with overlap
     ethr =  1.38E-12,  avg # of iterations =  2.5

     total cpu time spent up to now is        1.5 secs

     End of self-consistent calculation

          k =-0.1250 0.1250 0.1250 (   432 PWs)   bands (ev):

    -6.8506   3.7092   4.9641   4.9641

          k =-0.3750 0.3750-0.1250 (   437 PWs)   bands (ev):

    -6.0784   1.0538   3.3981   4.6391

          k = 0.3750-0.3750 0.6250 (   438 PWs)   bands (ev):

    -5.4169  -0.4707   3.3826   4.0083

          k = 0.1250-0.1250 0.3750 (   440 PWs)   bands (ev):

    -6.4386   2.2121   4.2134   4.2639

          k =-0.1250 0.6250 0.1250 (   439 PWs)   bands (ev):

    -5.7124   0.8074   3.0854   3.4592

          k = 0.6250-0.1250 0.8750 (   436 PWs)   bands (ev):

    -4.9665  -0.1205   1.7445   2.8220

          k = 0.3750 0.1250 0.6250 (   436 PWs)   bands (ev):

    -5.4810   0.2045   2.4768   3.7225

          k =-0.1250-0.8750 0.1250 (   445 PWs)   bands (ev):

    -5.0026  -0.2270   2.3718   3.0348

          k =-0.3750 0.3750 0.3750 (   431 PWs)   bands (ev):

    -5.8050   0.0104   4.3876   4.3876

          k = 0.3750-0.3750 1.1250 (   438 PWs)   bands (ev):

    -5.1649  -0.1627   1.8242   3.7423

!    total energy              =     -17.01017314 Ry
     Harris-Foulkes estimate   =     -17.01017314 Ry
     estimated scf accuracy    <          4.8E-12 Ry

     The total energy is the sum of the following terms:

     one-electron contribution =       3.41172998 Ry
     hartree contribution      =       1.54696733 Ry
     xc contribution           =      -4.83140477 Ry
     ewald contribution        =     -17.13746569 Ry

     convergence has been achieved in  12 iterations

     Forces acting on atoms (Ry/au):

     atom    1 type  1   force =     0.00000000    0.00000000    0.00000000
     atom    2 type  2   force =     0.00000000    0.00000000    0.00000000

     Total force =     0.000000     Total SCF correction =     0.000000


     entering subroutine stress ...

          total   stress  (Ry/bohr**3)                   (kbar)     P=   12.25
   0.00008328   0.00000000   0.00000000         12.25      0.00      0.00
   0.00000000   0.00008328   0.00000000          0.00     12.25      0.00
   0.00000000   0.00000000   0.00008328          0.00      0.00     12.25


     Writing output data file alas.save
 
     init_run     :      0.11s CPU      0.11s WALL (       1 calls)
     electrons    :      1.36s CPU      1.39s WALL (       1 calls)
     forces       :      0.00s CPU      0.01s WALL (       1 calls)
     stress       :      0.03s CPU      0.03s WALL (       1 calls)

     Called by init_run:
     wfcinit      :      0.06s CPU      0.06s WALL (       1 calls)
     potinit      :      0.00s CPU      0.01s WALL (       1 calls)

     Called by electrons:
     c_bands      :      1.08s CPU      1.09s WALL (      13 calls)
     sum_band     :      0.20s CPU      0.22s WALL (      13 calls)
     v_of_rho     :      0.04s CPU      0.03s WALL (      13 calls)
     mix_rho      :      0.02s CPU      0.02s WALL (      13 calls)

     Called by c_bands:
     init_us_2    :      0.04s CPU      0.04s WALL (     290 calls)
     cegterg      :      1.04s CPU      1.05s WALL (     130 calls)

     Called by *egterg:
     h_psi        :      0.97s CPU      0.99s WALL (     439 calls)
     g_psi        :      0.02s CPU      0.01s WALL (     299 calls)
     cdiaghg      :      0.03s CPU      0.03s WALL (     419 calls)

     Called by h_psi:
     add_vuspsi   :      0.01s CPU      0.01s WALL (     439 calls)

     General routines
     calbec       :      0.01s CPU      0.02s WALL (     459 calls)
     fft          :      0.02s CPU      0.03s WALL (      58 calls)
     fftw         :      1.02s CPU      1.01s WALL (    3522 calls)
     davcio       :      0.01s CPU      0.01s WALL (     420 calls)
 
 
     PWSCF        :     1.60s CPU         1.64s WALL

 
   This run was terminated on:   3:20:13  23Jun2014            

=------------------------------------------------------------------------------=
   JOB DONE.
=------------------------------------------------------------------------------=
