
     Program PWSCF v.4.3.2      starts on 23Jun2014 at  3:20:20 

     This program is part of the open-source Quantum ESPRESSO suite
     for quantum simulation of materials; please cite
         "P. Giannozzi et al., J. Phys.:Condens. Matter 21 395502 (2009);
          URL http://www.quantum-espresso.org", 
     in publications or presentations arising from this work. More details at
     http://www.quantum-espresso.org/wiki/index.php/Citing_Quantum-ESPRESSO

     Current dimensions of program PWSCF are:
     Max number of different atomic species (ntypx) = 10
     Max number of k-points (npk) =  40000
     Max angular momentum in pseudopotentials (lmaxx) =  3
     Waiting for input...
     Reading input from stdin
Warning: card   &IONS ignored
Warning: card   / ignored
Warning: card   &CELL ignored
Warning: card   / ignored
 
     G-vector sticks info
     --------------------
     sticks:   dense  smooth     PW     G-vecs:    dense   smooth      PW
     Sum         595     595    199                 9841     9841    1759
 


     bravais-lattice index     =            2
     lattice parameter (alat)  =      10.5000  a.u.
     unit-cell volume          =     289.4062 (a.u.)^3
     number of atoms/cell      =            2
     number of atomic types    =            2
     number of electrons       =         8.00
     number of Kohn-Sham states=            4
     kinetic-energy cutoff     =      40.0000  Ry
     charge density cutoff     =     160.0000  Ry
     convergence threshold     =      1.0E-10
     mixing beta               =       0.5000
     number of iterations used =            8  plain     mixing
     Exchange-correlation      =  SLA  PZ   NOGX NOGC ( 1 1 0 0 0)
     EXX-fraction              =        0.00

     celldm(1)=  10.500000  celldm(2)=   0.000000  celldm(3)=   0.000000
     celldm(4)=   0.000000  celldm(5)=   0.000000  celldm(6)=   0.000000

     crystal axes: (cart. coord. in units of alat)
               a(1) = (  -0.500000   0.000000   0.500000 )  
               a(2) = (   0.000000   0.500000   0.500000 )  
               a(3) = (  -0.500000   0.500000   0.000000 )  

     reciprocal axes: (cart. coord. in units 2 pi/alat)
               b(1) = ( -1.000000 -1.000000  1.000000 )  
               b(2) = (  1.000000  1.000000  1.000000 )  
               b(3) = ( -1.000000  1.000000 -1.000000 )  


     PseudoPot. # 1 for Al read from file:
     ../../pseudo/Al.pz-vbc.UPF
     MD5 check sum: 614279c88ff8d45c90147292d03ed420
     Pseudo is Norm-conserving, Zval =  3.0
     Generated by new atomic code, or converted to UPF format
     Using radial grid of  171 points,  2 beta functions with: 
                l(1) =   0
                l(2) =   1

     PseudoPot. # 2 for As read from file:
     ../../pseudo/As.pz-bhs.UPF
     MD5 check sum: 451cd3365afcfc94d28b1934951c34a8
     Pseudo is Norm-conserving, Zval =  5.0
     Generated by new atomic code, or converted to UPF format
     Using radial grid of  525 points,  2 beta functions with: 
                l(1) =   0
                l(2) =   1

     atomic species   valence    mass     pseudopotential
        Al             3.00    26.98000     Al( 1.00)
        As             5.00    74.92000     As( 1.00)

     24 Sym.Ops. (no inversion)


   Cartesian axes

     site n.     atom                  positions (alat units)
         1           Al  tau(   1) = (   0.0000000   0.0000000   0.0000000  )
         2           As  tau(   2) = (   0.2500000   0.2500000   0.2500000  )

     number of k points=    10
                       cart. coord. in units 2pi/alat
        k(    1) = (  -0.1250000   0.1250000   0.1250000), wk =   0.0625000
        k(    2) = (  -0.3750000   0.3750000  -0.1250000), wk =   0.1875000
        k(    3) = (   0.3750000  -0.3750000   0.6250000), wk =   0.1875000
        k(    4) = (   0.1250000  -0.1250000   0.3750000), wk =   0.1875000
        k(    5) = (  -0.1250000   0.6250000   0.1250000), wk =   0.1875000
        k(    6) = (   0.6250000  -0.1250000   0.8750000), wk =   0.3750000
        k(    7) = (   0.3750000   0.1250000   0.6250000), wk =   0.3750000
        k(    8) = (  -0.1250000  -0.8750000   0.1250000), wk =   0.1875000
        k(    9) = (  -0.3750000   0.3750000   0.3750000), wk =   0.0625000
        k(   10) = (   0.3750000  -0.3750000   1.1250000), wk =   0.1875000

     Dense  grid:     9841 G-vectors     FFT dimensions: (  30,  30,  30)

     Largest allocated arrays     est. size (Mb)     dimensions
        Kohn-Sham Wavefunctions         0.08 Mb     (   1254,    4)
        NL pseudopotentials             0.15 Mb     (   1254,    8)
        Each V/rho on FFT grid          0.41 Mb     (  27000)
        Each G-vector array             0.08 Mb     (   9841)
        G-vector shells                 0.00 Mb     (    151)
     Largest temporary arrays     est. size (Mb)     dimensions
        Auxiliary wavefunctions         0.31 Mb     (   1254,   16)
        Each subspace H/S matrix        0.00 Mb     (  16,  16)
        Each <psi_i|beta_j> matrix      0.00 Mb     (      8,    4)
        Arrays for rho mixing           3.30 Mb     (  27000,   8)

     Initial potential from superposition of free atoms

     starting charge    7.99774, renormalised to    8.00000

     negative rho (up, down):  0.322E-04 0.000E+00
     Starting wfc are    8 atomic wfcs

     total cpu time spent up to now is        0.3 secs

     per-process dynamical memory:     5.7 Mb

     Self-consistent Calculation

     iteration #  1     ecut=    40.00 Ry     beta=0.50
     Davidson diagonalization with overlap
     ethr =  1.00E-02,  avg # of iterations =  2.0

     Threshold (ethr) on eigenvalues was too large:
     Diagonalizing with lowered threshold

     Davidson diagonalization with overlap
     ethr =  9.75E-04,  avg # of iterations =  1.4

     negative rho (up, down):  0.145E-04 0.000E+00

     total cpu time spent up to now is        0.8 secs

     total energy              =     -17.00949314 Ry
     Harris-Foulkes estimate   =     -17.03767605 Ry
     estimated scf accuracy    <       0.07456976 Ry

     iteration #  2     ecut=    40.00 Ry     beta=0.50
     Davidson diagonalization with overlap
     ethr =  9.32E-04,  avg # of iterations =  2.0

     negative rho (up, down):  0.361E-05 0.000E+00

     total cpu time spent up to now is        1.0 secs

     total energy              =     -17.01806720 Ry
     Harris-Foulkes estimate   =     -17.01906254 Ry
     estimated scf accuracy    <       0.00705382 Ry

     iteration #  3     ecut=    40.00 Ry     beta=0.50
     Davidson diagonalization with overlap
     ethr =  8.82E-05,  avg # of iterations =  2.2

     total cpu time spent up to now is        1.3 secs

     total energy              =     -17.01860888 Ry
     Harris-Foulkes estimate   =     -17.01875474 Ry
     estimated scf accuracy    <       0.00108667 Ry

     iteration #  4     ecut=    40.00 Ry     beta=0.50
     Davidson diagonalization with overlap
     ethr =  1.36E-05,  avg # of iterations =  1.6

     total cpu time spent up to now is        1.5 secs

     total energy              =     -17.01868886 Ry
     Harris-Foulkes estimate   =     -17.01869635 Ry
     estimated scf accuracy    <       0.00001559 Ry

     iteration #  5     ecut=    40.00 Ry     beta=0.50
     Davidson diagonalization with overlap
     ethr =  1.95E-07,  avg # of iterations =  3.3

     total cpu time spent up to now is        1.9 secs

     total energy              =     -17.01870115 Ry
     Harris-Foulkes estimate   =     -17.01870340 Ry
     estimated scf accuracy    <       0.00000617 Ry

     iteration #  6     ecut=    40.00 Ry     beta=0.50
     Davidson diagonalization with overlap
     ethr =  7.71E-08,  avg # of iterations =  1.7

     total cpu time spent up to now is        2.1 secs

     total energy              =     -17.01870169 Ry
     Harris-Foulkes estimate   =     -17.01870169 Ry
     estimated scf accuracy    <       0.00000002 Ry

     iteration #  7     ecut=    40.00 Ry     beta=0.50
     Davidson diagonalization with overlap
     ethr =  1.89E-10,  avg # of iterations =  3.7

     total cpu time spent up to now is        2.5 secs

     total energy              =     -17.01870174 Ry
     Harris-Foulkes estimate   =     -17.01870175 Ry
     estimated scf accuracy    <       0.00000003 Ry

     iteration #  8     ecut=    40.00 Ry     beta=0.50
     Davidson diagonalization with overlap
     ethr =  1.89E-10,  avg # of iterations =  3.0

     total cpu time spent up to now is        2.8 secs

     total energy              =     -17.01870174 Ry
     Harris-Foulkes estimate   =     -17.01870174 Ry
     estimated scf accuracy    <          3.0E-09 Ry

     iteration #  9     ecut=    40.00 Ry     beta=0.50
     Davidson diagonalization with overlap
     ethr =  3.81E-11,  avg # of iterations =  2.0

     total cpu time spent up to now is        3.0 secs

     total energy              =     -17.01870174 Ry
     Harris-Foulkes estimate   =     -17.01870174 Ry
     estimated scf accuracy    <          1.0E-09 Ry

     iteration # 10     ecut=    40.00 Ry     beta=0.50
     Davidson diagonalization with overlap
     ethr =  1.26E-11,  avg # of iterations =  1.7

     total cpu time spent up to now is        3.2 secs

     End of self-consistent calculation

          k =-0.1250 0.1250 0.1250 (  1254 PWs)   bands (ev):

    -6.8646   3.6993   4.9580   4.9580

          k =-0.3750 0.3750-0.1250 (  1241 PWs)   bands (ev):

    -6.0940   1.0447   3.3927   4.6335

          k = 0.3750-0.3750 0.6250 (  1227 PWs)   bands (ev):

    -5.4347  -0.4771   3.3763   4.0040

          k = 0.1250-0.1250 0.3750 (  1247 PWs)   bands (ev):

    -6.4534   2.2014   4.2089   4.2585

          k =-0.1250 0.6250 0.1250 (  1244 PWs)   bands (ev):

    -5.7290   0.7973   3.0804   3.4548

          k = 0.6250-0.1250 0.8750 (  1231 PWs)   bands (ev):

    -4.9860  -0.1279   1.7399   2.8174

          k = 0.3750 0.1250 0.6250 (  1239 PWs)   bands (ev):

    -5.4985   0.1963   2.4712   3.7174

          k =-0.1250-0.8750 0.1250 (  1232 PWs)   bands (ev):

    -5.0218  -0.2341   2.3680   3.0305

          k =-0.3750 0.3750 0.3750 (  1239 PWs)   bands (ev):

    -5.8216   0.0028   4.3827   4.3827

          k = 0.3750-0.3750 1.1250 (  1234 PWs)   bands (ev):

    -5.1836  -0.1696   1.8186   3.7379

!    total energy              =     -17.01870174 Ry
     Harris-Foulkes estimate   =     -17.01870174 Ry
     estimated scf accuracy    <          1.1E-12 Ry

     The total energy is the sum of the following terms:

     one-electron contribution =       3.40076442 Ry
     hartree contribution      =       1.55063444 Ry
     xc contribution           =      -4.83263489 Ry
     ewald contribution        =     -17.13746572 Ry

     convergence has been achieved in  10 iterations

     Forces acting on atoms (Ry/au):

     atom    1 type  1   force =     0.00000000    0.00000000    0.00000000
     atom    2 type  2   force =     0.00000000    0.00000000    0.00000000

     Total force =     0.000000     Total SCF correction =     0.000000


     entering subroutine stress ...

          total   stress  (Ry/bohr**3)                   (kbar)     P=   19.35
   0.00013150   0.00000000   0.00000000         19.35      0.00      0.00
   0.00000000   0.00013150   0.00000000          0.00     19.35      0.00
   0.00000000   0.00000000   0.00013150          0.00      0.00     19.35


     Writing output data file alas.save
 
     init_run     :      0.23s CPU      0.24s WALL (       1 calls)
     electrons    :      2.90s CPU      2.97s WALL (       1 calls)
     forces       :      0.02s CPU      0.02s WALL (       1 calls)
     stress       :      0.09s CPU      0.11s WALL (       1 calls)

     Called by init_run:
     wfcinit      :      0.14s CPU      0.15s WALL (       1 calls)
     potinit      :      0.00s CPU      0.01s WALL (       1 calls)

     Called by electrons:
     c_bands      :      2.31s CPU      2.35s WALL (      11 calls)
     sum_band     :      0.48s CPU      0.48s WALL (      11 calls)
     v_of_rho     :      0.04s CPU      0.05s WALL (      11 calls)
     mix_rho      :      0.04s CPU      0.05s WALL (      11 calls)

     Called by c_bands:
     init_us_2    :      0.17s CPU      0.11s WALL (     250 calls)
     cegterg      :      2.18s CPU      2.25s WALL (     110 calls)

     Called by *egterg:
     h_psi        :      2.04s CPU      2.13s WALL (     366 calls)
     g_psi        :      0.02s CPU      0.03s WALL (     246 calls)
     cdiaghg      :      0.06s CPU      0.04s WALL (     346 calls)

     Called by h_psi:
     add_vuspsi   :      0.02s CPU      0.03s WALL (     366 calls)

     General routines
     calbec       :      0.04s CPU      0.05s WALL (     386 calls)
     fft          :      0.06s CPU      0.06s WALL (      50 calls)
     fftw         :      2.03s CPU      2.12s WALL (    3054 calls)
     davcio       :      0.02s CPU      0.03s WALL (     360 calls)
 
 
     PWSCF        :     3.36s CPU         3.45s WALL

 
   This run was terminated on:   3:20:24  23Jun2014            

=------------------------------------------------------------------------------=
   JOB DONE.
=------------------------------------------------------------------------------=
