
     Program PWSCF v.4.3.2      starts on 23Jun2014 at  3:20:17 

     This program is part of the open-source Quantum ESPRESSO suite
     for quantum simulation of materials; please cite
         "P. Giannozzi et al., J. Phys.:Condens. Matter 21 395502 (2009);
          URL http://www.quantum-espresso.org", 
     in publications or presentations arising from this work. More details at
     http://www.quantum-espresso.org/wiki/index.php/Citing_Quantum-ESPRESSO

     Current dimensions of program PWSCF are:
     Max number of different atomic species (ntypx) = 10
     Max number of k-points (npk) =  40000
     Max angular momentum in pseudopotentials (lmaxx) =  3
     Waiting for input...
     Reading input from stdin
Warning: card   &IONS ignored
Warning: card   / ignored
Warning: card   &CELL ignored
Warning: card   / ignored
 
     G-vector sticks info
     --------------------
     sticks:   dense  smooth     PW     G-vecs:    dense   smooth      PW
     Sum         517     517    163                 7991     7991    1459
 


     bravais-lattice index     =            2
     lattice parameter (alat)  =      10.5000  a.u.
     unit-cell volume          =     289.4062 (a.u.)^3
     number of atoms/cell      =            2
     number of atomic types    =            2
     number of electrons       =         8.00
     number of Kohn-Sham states=            4
     kinetic-energy cutoff     =      35.0000  Ry
     charge density cutoff     =     140.0000  Ry
     convergence threshold     =      1.0E-10
     mixing beta               =       0.5000
     number of iterations used =            8  plain     mixing
     Exchange-correlation      =  SLA  PZ   NOGX NOGC ( 1 1 0 0 0)
     EXX-fraction              =        0.00

     celldm(1)=  10.500000  celldm(2)=   0.000000  celldm(3)=   0.000000
     celldm(4)=   0.000000  celldm(5)=   0.000000  celldm(6)=   0.000000

     crystal axes: (cart. coord. in units of alat)
               a(1) = (  -0.500000   0.000000   0.500000 )  
               a(2) = (   0.000000   0.500000   0.500000 )  
               a(3) = (  -0.500000   0.500000   0.000000 )  

     reciprocal axes: (cart. coord. in units 2 pi/alat)
               b(1) = ( -1.000000 -1.000000  1.000000 )  
               b(2) = (  1.000000  1.000000  1.000000 )  
               b(3) = ( -1.000000  1.000000 -1.000000 )  


     PseudoPot. # 1 for Al read from file:
     ../../pseudo/Al.pz-vbc.UPF
     MD5 check sum: 614279c88ff8d45c90147292d03ed420
     Pseudo is Norm-conserving, Zval =  3.0
     Generated by new atomic code, or converted to UPF format
     Using radial grid of  171 points,  2 beta functions with: 
                l(1) =   0
                l(2) =   1

     PseudoPot. # 2 for As read from file:
     ../../pseudo/As.pz-bhs.UPF
     MD5 check sum: 451cd3365afcfc94d28b1934951c34a8
     Pseudo is Norm-conserving, Zval =  5.0
     Generated by new atomic code, or converted to UPF format
     Using radial grid of  525 points,  2 beta functions with: 
                l(1) =   0
                l(2) =   1

     atomic species   valence    mass     pseudopotential
        Al             3.00    26.98000     Al( 1.00)
        As             5.00    74.92000     As( 1.00)

     24 Sym.Ops. (no inversion)


   Cartesian axes

     site n.     atom                  positions (alat units)
         1           Al  tau(   1) = (   0.0000000   0.0000000   0.0000000  )
         2           As  tau(   2) = (   0.2500000   0.2500000   0.2500000  )

     number of k points=    10
                       cart. coord. in units 2pi/alat
        k(    1) = (  -0.1250000   0.1250000   0.1250000), wk =   0.0625000
        k(    2) = (  -0.3750000   0.3750000  -0.1250000), wk =   0.1875000
        k(    3) = (   0.3750000  -0.3750000   0.6250000), wk =   0.1875000
        k(    4) = (   0.1250000  -0.1250000   0.3750000), wk =   0.1875000
        k(    5) = (  -0.1250000   0.6250000   0.1250000), wk =   0.1875000
        k(    6) = (   0.6250000  -0.1250000   0.8750000), wk =   0.3750000
        k(    7) = (   0.3750000   0.1250000   0.6250000), wk =   0.3750000
        k(    8) = (  -0.1250000  -0.8750000   0.1250000), wk =   0.1875000
        k(    9) = (  -0.3750000   0.3750000   0.3750000), wk =   0.0625000
        k(   10) = (   0.3750000  -0.3750000   1.1250000), wk =   0.1875000

     Dense  grid:     7991 G-vectors     FFT dimensions: (  27,  27,  27)

     Largest allocated arrays     est. size (Mb)     dimensions
        Kohn-Sham Wavefunctions         0.06 Mb     (   1018,    4)
        NL pseudopotentials             0.12 Mb     (   1018,    8)
        Each V/rho on FFT grid          0.30 Mb     (  19683)
        Each G-vector array             0.06 Mb     (   7991)
        G-vector shells                 0.00 Mb     (    132)
     Largest temporary arrays     est. size (Mb)     dimensions
        Auxiliary wavefunctions         0.25 Mb     (   1018,   16)
        Each subspace H/S matrix        0.00 Mb     (  16,  16)
        Each <psi_i|beta_j> matrix      0.00 Mb     (      8,    4)
        Arrays for rho mixing           2.40 Mb     (  19683,   8)

     Initial potential from superposition of free atoms

     starting charge    7.99774, renormalised to    8.00000
     Starting wfc are    8 atomic wfcs

     total cpu time spent up to now is        0.2 secs

     per-process dynamical memory:     4.4 Mb

     Self-consistent Calculation

     iteration #  1     ecut=    35.00 Ry     beta=0.50
     Davidson diagonalization with overlap
     ethr =  1.00E-02,  avg # of iterations =  2.0

     Threshold (ethr) on eigenvalues was too large:
     Diagonalizing with lowered threshold

     Davidson diagonalization with overlap
     ethr =  9.27E-04,  avg # of iterations =  1.6

     total cpu time spent up to now is        0.6 secs

     total energy              =     -17.01018776 Ry
     Harris-Foulkes estimate   =     -17.03721282 Ry
     estimated scf accuracy    <       0.07248660 Ry

     iteration #  2     ecut=    35.00 Ry     beta=0.50
     Davidson diagonalization with overlap
     ethr =  9.06E-04,  avg # of iterations =  1.9

     total cpu time spent up to now is        0.8 secs

     total energy              =     -17.01687097 Ry
     Harris-Foulkes estimate   =     -17.01793997 Ry
     estimated scf accuracy    <       0.00703254 Ry

     iteration #  3     ecut=    35.00 Ry     beta=0.50
     Davidson diagonalization with overlap
     ethr =  8.79E-05,  avg # of iterations =  2.2

     total cpu time spent up to now is        1.0 secs

     total energy              =     -17.01752329 Ry
     Harris-Foulkes estimate   =     -17.01765717 Ry
     estimated scf accuracy    <       0.00093889 Ry

     iteration #  4     ecut=    35.00 Ry     beta=0.50
     Davidson diagonalization with overlap
     ethr =  1.17E-05,  avg # of iterations =  1.7

     total cpu time spent up to now is        1.2 secs

     total energy              =     -17.01760072 Ry
     Harris-Foulkes estimate   =     -17.01760652 Ry
     estimated scf accuracy    <       0.00001118 Ry

     iteration #  5     ecut=    35.00 Ry     beta=0.50
     Davidson diagonalization with overlap
     ethr =  1.40E-07,  avg # of iterations =  3.1

     total cpu time spent up to now is        1.5 secs

     total energy              =     -17.01761113 Ry
     Harris-Foulkes estimate   =     -17.01761183 Ry
     estimated scf accuracy    <       0.00000226 Ry

     iteration #  6     ecut=    35.00 Ry     beta=0.50
     Davidson diagonalization with overlap
     ethr =  2.82E-08,  avg # of iterations =  1.9

     total cpu time spent up to now is        1.7 secs

     total energy              =     -17.01761136 Ry
     Harris-Foulkes estimate   =     -17.01761137 Ry
     estimated scf accuracy    <       0.00000003 Ry

     iteration #  7     ecut=    35.00 Ry     beta=0.50
     Davidson diagonalization with overlap
     ethr =  3.87E-10,  avg # of iterations =  3.2

     total cpu time spent up to now is        1.9 secs

     total energy              =     -17.01761137 Ry
     Harris-Foulkes estimate   =     -17.01761138 Ry
     estimated scf accuracy    <       0.00000002 Ry

     iteration #  8     ecut=    35.00 Ry     beta=0.50
     Davidson diagonalization with overlap
     ethr =  2.87E-10,  avg # of iterations =  2.0

     total cpu time spent up to now is        2.2 secs

     total energy              =     -17.01761138 Ry
     Harris-Foulkes estimate   =     -17.01761138 Ry
     estimated scf accuracy    <          1.7E-10 Ry

     iteration #  9     ecut=    35.00 Ry     beta=0.50
     Davidson diagonalization with overlap
     ethr =  2.10E-12,  avg # of iterations =  3.6

     total cpu time spent up to now is        2.4 secs

     total energy              =     -17.01761138 Ry
     Harris-Foulkes estimate   =     -17.01761138 Ry
     estimated scf accuracy    <          1.1E-10 Ry

     iteration # 10     ecut=    35.00 Ry     beta=0.50
     Davidson diagonalization with overlap
     ethr =  1.33E-12,  avg # of iterations =  1.0

     total cpu time spent up to now is        2.6 secs

     End of self-consistent calculation

          k =-0.1250 0.1250 0.1250 (   989 PWs)   bands (ev):

    -6.8601   3.7005   4.9577   4.9577

          k =-0.3750 0.3750-0.1250 (  1004 PWs)   bands (ev):

    -6.0899   1.0461   3.3928   4.6332

          k = 0.3750-0.3750 0.6250 (  1015 PWs)   bands (ev):

    -5.4306  -0.4764   3.3765   4.0037

          k = 0.1250-0.1250 0.3750 (  1002 PWs)   bands (ev):

    -6.4493   2.2031   4.2086   4.2585

          k =-0.1250 0.6250 0.1250 (  1018 PWs)   bands (ev):

    -5.7249   0.7988   3.0804   3.4546

          k = 0.6250-0.1250 0.8750 (  1015 PWs)   bands (ev):

    -4.9813  -0.1270   1.7399   2.8173

          k = 0.3750 0.1250 0.6250 (  1017 PWs)   bands (ev):

    -5.4943   0.1975   2.4714   3.7172

          k =-0.1250-0.8750 0.1250 (  1009 PWs)   bands (ev):

    -5.0169  -0.2331   2.3679   3.0304

          k =-0.3750 0.3750 0.3750 (  1014 PWs)   bands (ev):

    -5.8176   0.0037   4.3824   4.3824

          k = 0.3750-0.3750 1.1250 (  1007 PWs)   bands (ev):

    -5.1788  -0.1688   1.8188   3.7377

!    total energy              =     -17.01761138 Ry
     Harris-Foulkes estimate   =     -17.01761138 Ry
     estimated scf accuracy    <          4.6E-11 Ry

     The total energy is the sum of the following terms:

     one-electron contribution =       3.40210423 Ry
     hartree contribution      =       1.55031563 Ry
     xc contribution           =      -4.83256553 Ry
     ewald contribution        =     -17.13746571 Ry

     convergence has been achieved in  10 iterations

     Forces acting on atoms (Ry/au):

     atom    1 type  1   force =     0.00000000    0.00000000    0.00000000
     atom    2 type  2   force =     0.00000000    0.00000000    0.00000000

     Total force =     0.000000     Total SCF correction =     0.000000


     entering subroutine stress ...

          total   stress  (Ry/bohr**3)                   (kbar)     P=   17.64
   0.00011992   0.00000000   0.00000000         17.64      0.00      0.00
   0.00000000   0.00011992   0.00000000          0.00     17.64      0.00
   0.00000000   0.00000000   0.00011992          0.00      0.00     17.64


     Writing output data file alas.save
 
     init_run     :      0.19s CPU      0.20s WALL (       1 calls)
     electrons    :      2.26s CPU      2.36s WALL (       1 calls)
     forces       :      0.02s CPU      0.01s WALL (       1 calls)
     stress       :      0.06s CPU      0.07s WALL (       1 calls)

     Called by init_run:
     wfcinit      :      0.11s CPU      0.11s WALL (       1 calls)
     potinit      :      0.01s CPU      0.01s WALL (       1 calls)

     Called by electrons:
     c_bands      :      1.82s CPU      1.88s WALL (      11 calls)
     sum_band     :      0.36s CPU      0.37s WALL (      11 calls)
     v_of_rho     :      0.04s CPU      0.04s WALL (      11 calls)
     mix_rho      :      0.03s CPU      0.04s WALL (      11 calls)

     Called by c_bands:
     init_us_2    :      0.10s CPU      0.10s WALL (     250 calls)
     cegterg      :      1.73s CPU      1.79s WALL (     110 calls)

     Called by *egterg:
     h_psi        :      1.62s CPU      1.66s WALL (     362 calls)
     g_psi        :      0.03s CPU      0.02s WALL (     242 calls)
     cdiaghg      :      0.04s CPU      0.04s WALL (     342 calls)

     Called by h_psi:
     add_vuspsi   :      0.04s CPU      0.03s WALL (     362 calls)

     General routines
     calbec       :      0.03s CPU      0.04s WALL (     382 calls)
     fft          :      0.03s CPU      0.04s WALL (      50 calls)
     fftw         :      1.61s CPU      1.65s WALL (    3036 calls)
     davcio       :      0.01s CPU      0.02s WALL (     360 calls)
 
 
     PWSCF        :     2.63s CPU         2.76s WALL

 
   This run was terminated on:   3:20:20  23Jun2014            

=------------------------------------------------------------------------------=
   JOB DONE.
=------------------------------------------------------------------------------=
