
     Program PWSCF v.4.3.2      starts on 23Jun2014 at  3:25:27 

     This program is part of the open-source Quantum ESPRESSO suite
     for quantum simulation of materials; please cite
         "P. Giannozzi et al., J. Phys.:Condens. Matter 21 395502 (2009);
          URL http://www.quantum-espresso.org", 
     in publications or presentations arising from this work. More details at
     http://www.quantum-espresso.org/wiki/index.php/Citing_Quantum-ESPRESSO

     Current dimensions of program PWSCF are:
     Max number of different atomic species (ntypx) = 10
     Max number of k-points (npk) =  40000
     Max angular momentum in pseudopotentials (lmaxx) =  3
     Waiting for input...
     Reading input from stdin
Warning: card   &IONS ignored
Warning: card   / ignored
Warning: card   &CELL ignored
Warning: card   / ignored
 
     G-vector sticks info
     --------------------
     sticks:   dense  smooth     PW     G-vecs:    dense   smooth      PW
     Sum         673     673    211                11791    11791    2085
 


     bravais-lattice index     =            2
     lattice parameter (alat)  =      10.5000  a.u.
     unit-cell volume          =     289.4062 (a.u.)^3
     number of atoms/cell      =            2
     number of atomic types    =            2
     number of electrons       =         8.00
     number of Kohn-Sham states=            4
     kinetic-energy cutoff     =      45.0000  Ry
     charge density cutoff     =     180.0000  Ry
     convergence threshold     =      1.0E-10
     mixing beta               =       0.5000
     number of iterations used =            8  plain     mixing
     Exchange-correlation      =  SLA  PZ   NOGX NOGC ( 1 1 0 0 0)
     EXX-fraction              =        0.00

     celldm(1)=  10.500000  celldm(2)=   0.000000  celldm(3)=   0.000000
     celldm(4)=   0.000000  celldm(5)=   0.000000  celldm(6)=   0.000000

     crystal axes: (cart. coord. in units of alat)
               a(1) = (  -0.500000   0.000000   0.500000 )  
               a(2) = (   0.000000   0.500000   0.500000 )  
               a(3) = (  -0.500000   0.500000   0.000000 )  

     reciprocal axes: (cart. coord. in units 2 pi/alat)
               b(1) = ( -1.000000 -1.000000  1.000000 )  
               b(2) = (  1.000000  1.000000  1.000000 )  
               b(3) = ( -1.000000  1.000000 -1.000000 )  


     PseudoPot. # 1 for Al read from file:
     ../../pseudo/Al.pz-vbc.UPF
     MD5 check sum: 614279c88ff8d45c90147292d03ed420
     Pseudo is Norm-conserving, Zval =  3.0
     Generated by new atomic code, or converted to UPF format
     Using radial grid of  171 points,  2 beta functions with: 
                l(1) =   0
                l(2) =   1

     PseudoPot. # 2 for As read from file:
     ../../pseudo/As.pz-bhs.UPF
     MD5 check sum: 451cd3365afcfc94d28b1934951c34a8
     Pseudo is Norm-conserving, Zval =  5.0
     Generated by new atomic code, or converted to UPF format
     Using radial grid of  525 points,  2 beta functions with: 
                l(1) =   0
                l(2) =   1

     atomic species   valence    mass     pseudopotential
        Al             3.00    26.98000     Al( 1.00)
        As             5.00    74.92000     As( 1.00)

     24 Sym.Ops. (no inversion)


   Cartesian axes

     site n.     atom                  positions (alat units)
         1           Al  tau(   1) = (   0.0000000   0.0000000   0.0000000  )
         2           As  tau(   2) = (   0.2500000   0.2500000   0.2500000  )

     number of k points=    10
                       cart. coord. in units 2pi/alat
        k(    1) = (  -0.1250000   0.1250000   0.1250000), wk =   0.0625000
        k(    2) = (  -0.3750000   0.3750000  -0.1250000), wk =   0.1875000
        k(    3) = (   0.3750000  -0.3750000   0.6250000), wk =   0.1875000
        k(    4) = (   0.1250000  -0.1250000   0.3750000), wk =   0.1875000
        k(    5) = (  -0.1250000   0.6250000   0.1250000), wk =   0.1875000
        k(    6) = (   0.6250000  -0.1250000   0.8750000), wk =   0.3750000
        k(    7) = (   0.3750000   0.1250000   0.6250000), wk =   0.3750000
        k(    8) = (  -0.1250000  -0.8750000   0.1250000), wk =   0.1875000
        k(    9) = (  -0.3750000   0.3750000   0.3750000), wk =   0.0625000
        k(   10) = (   0.3750000  -0.3750000   1.1250000), wk =   0.1875000

     Dense  grid:    11791 G-vectors     FFT dimensions: (  32,  32,  32)

     Largest allocated arrays     est. size (Mb)     dimensions
        Kohn-Sham Wavefunctions         0.09 Mb     (   1483,    4)
        NL pseudopotentials             0.18 Mb     (   1483,    8)
        Each V/rho on FFT grid          0.50 Mb     (  32768)
        Each G-vector array             0.09 Mb     (  11791)
        G-vector shells                 0.00 Mb     (    169)
     Largest temporary arrays     est. size (Mb)     dimensions
        Auxiliary wavefunctions         0.36 Mb     (   1483,   16)
        Each subspace H/S matrix        0.00 Mb     (  16,  16)
        Each <psi_i|beta_j> matrix      0.00 Mb     (      8,    4)
        Arrays for rho mixing           4.00 Mb     (  32768,   8)

     Initial potential from superposition of free atoms

     starting charge    7.99774, renormalised to    8.00000
     Starting wfc are    8 atomic wfcs

     total cpu time spent up to now is        0.3 secs

     per-process dynamical memory:     6.7 Mb

     Self-consistent Calculation

     iteration #  1     ecut=    45.00 Ry     beta=0.50
     Davidson diagonalization with overlap
     ethr =  1.00E-02,  avg # of iterations =  2.0

     total cpu time spent up to now is        0.5 secs

     total energy              =     -17.00035093 Ry
     Harris-Foulkes estimate   =     -17.03241497 Ry
     estimated scf accuracy    <       0.08164643 Ry

     iteration #  2     ecut=    45.00 Ry     beta=0.50
     Davidson diagonalization with overlap
     ethr =  1.02E-03,  avg # of iterations =  2.7

     total cpu time spent up to now is        0.7 secs

     total energy              =     -17.01876041 Ry
     Harris-Foulkes estimate   =     -17.02012497 Ry
     estimated scf accuracy    <       0.00824487 Ry

     iteration #  3     ecut=    45.00 Ry     beta=0.50
     Davidson diagonalization with overlap
     ethr =  1.03E-04,  avg # of iterations =  1.5

     total cpu time spent up to now is        0.9 secs

     total energy              =     -17.01897556 Ry
     Harris-Foulkes estimate   =     -17.01918698 Ry
     estimated scf accuracy    <       0.00153530 Ry

     iteration #  4     ecut=    45.00 Ry     beta=0.50
     Davidson diagonalization with overlap
     ethr =  1.92E-05,  avg # of iterations =  1.9

     total cpu time spent up to now is        1.1 secs

     total energy              =     -17.01908708 Ry
     Harris-Foulkes estimate   =     -17.01911921 Ry
     estimated scf accuracy    <       0.00005746 Ry

     iteration #  5     ecut=    45.00 Ry     beta=0.50
     Davidson diagonalization with overlap
     ethr =  7.18E-07,  avg # of iterations =  3.0

     total cpu time spent up to now is        1.4 secs

     total energy              =     -17.01910797 Ry
     Harris-Foulkes estimate   =     -17.01912429 Ry
     estimated scf accuracy    <       0.00002942 Ry

     iteration #  6     ecut=    45.00 Ry     beta=0.50
     Davidson diagonalization with overlap
     ethr =  3.68E-07,  avg # of iterations =  2.0

     total cpu time spent up to now is        1.6 secs

     total energy              =     -17.01911305 Ry
     Harris-Foulkes estimate   =     -17.01911307 Ry
     estimated scf accuracy    <       0.00000011 Ry

     iteration #  7     ecut=    45.00 Ry     beta=0.50
     Davidson diagonalization with overlap
     ethr =  1.37E-09,  avg # of iterations =  4.0

     total cpu time spent up to now is        2.0 secs

     total energy              =     -17.01911330 Ry
     Harris-Foulkes estimate   =     -17.01911335 Ry
     estimated scf accuracy    <       0.00000010 Ry

     iteration #  8     ecut=    45.00 Ry     beta=0.50
     Davidson diagonalization with overlap
     ethr =  1.28E-09,  avg # of iterations =  2.0

     total cpu time spent up to now is        2.2 secs

     total energy              =     -17.01911331 Ry
     Harris-Foulkes estimate   =     -17.01911332 Ry
     estimated scf accuracy    <       0.00000002 Ry

     iteration #  9     ecut=    45.00 Ry     beta=0.50
     Davidson diagonalization with overlap
     ethr =  1.90E-10,  avg # of iterations =  1.2

     total cpu time spent up to now is        2.4 secs

     total energy              =     -17.01911331 Ry
     Harris-Foulkes estimate   =     -17.01911332 Ry
     estimated scf accuracy    <          4.2E-09 Ry

     iteration # 10     ecut=    45.00 Ry     beta=0.50
     Davidson diagonalization with overlap
     ethr =  5.29E-11,  avg # of iterations =  3.0

     total cpu time spent up to now is        2.7 secs

     total energy              =     -17.01911331 Ry
     Harris-Foulkes estimate   =     -17.01911332 Ry
     estimated scf accuracy    <          2.6E-09 Ry

     iteration # 11     ecut=    45.00 Ry     beta=0.50
     Davidson diagonalization with overlap
     ethr =  3.30E-11,  avg # of iterations =  2.0

     total cpu time spent up to now is        2.9 secs

     End of self-consistent calculation

          k =-0.1250 0.1250 0.1250 (  1450 PWs)   bands (ev):

    -6.8654   3.6989   4.9581   4.9581

          k =-0.3750 0.3750-0.1250 (  1472 PWs)   bands (ev):

    -6.0952   1.0442   3.3926   4.6336

          k = 0.3750-0.3750 0.6250 (  1474 PWs)   bands (ev):

    -5.4363  -0.4774   3.3761   4.0040

          k = 0.1250-0.1250 0.3750 (  1465 PWs)   bands (ev):

    -6.4544   2.2008   4.2089   4.2584

          k =-0.1250 0.6250 0.1250 (  1470 PWs)   bands (ev):

    -5.7302   0.7967   3.0804   3.4548

          k = 0.6250-0.1250 0.8750 (  1479 PWs)   bands (ev):

    -4.9877  -0.1283   1.7398   2.8174

          k = 0.3750 0.1250 0.6250 (  1477 PWs)   bands (ev):

    -5.4999   0.1959   2.4711   3.7174

          k =-0.1250-0.8750 0.1250 (  1476 PWs)   bands (ev):

    -5.0234  -0.2346   2.3679   3.0305

          k =-0.3750 0.3750 0.3750 (  1471 PWs)   bands (ev):

    -5.8228   0.0023   4.3828   4.3828

          k = 0.3750-0.3750 1.1250 (  1483 PWs)   bands (ev):

    -5.1853  -0.1700   1.8184   3.7379

!    total energy              =     -17.01911331 Ry
     Harris-Foulkes estimate   =     -17.01911331 Ry
     estimated scf accuracy    <          6.2E-12 Ry

     The total energy is the sum of the following terms:

     one-electron contribution =       3.40024363 Ry
     hartree contribution      =       1.55077307 Ry
     xc contribution           =      -4.83266432 Ry
     ewald contribution        =     -17.13746570 Ry

     convergence has been achieved in  11 iterations

     Forces acting on atoms (Ry/au):

     atom    1 type  1   force =     0.00000000    0.00000000    0.00000000
     atom    2 type  2   force =     0.00000000    0.00000000    0.00000000

     Total force =     0.000000     Total SCF correction =     0.000000


     entering subroutine stress ...

          total   stress  (Ry/bohr**3)                   (kbar)     P=   20.55
   0.00013970   0.00000000   0.00000000         20.55      0.00      0.00
   0.00000000   0.00013970   0.00000000          0.00     20.55      0.00
   0.00000000   0.00000000   0.00013970          0.00      0.00     20.55


     Writing output data file alas.save
 
     init_run     :      0.22s CPU      0.22s WALL (       1 calls)
     electrons    :      2.57s CPU      2.63s WALL (       1 calls)
     forces       :      0.02s CPU      0.02s WALL (       1 calls)
     stress       :      0.10s CPU      0.10s WALL (       1 calls)

     Called by init_run:
     wfcinit      :      0.12s CPU      0.12s WALL (       1 calls)
     potinit      :      0.01s CPU      0.01s WALL (       1 calls)

     Called by electrons:
     c_bands      :      2.02s CPU      2.05s WALL (      11 calls)
     sum_band     :      0.38s CPU      0.40s WALL (      11 calls)
     v_of_rho     :      0.07s CPU      0.06s WALL (      12 calls)
     mix_rho      :      0.05s CPU      0.06s WALL (      11 calls)

     Called by c_bands:
     init_us_2    :      0.11s CPU      0.13s WALL (     250 calls)
     cegterg      :      1.94s CPU      1.94s WALL (     110 calls)

     Called by *egterg:
     h_psi        :      1.77s CPU      1.75s WALL (     373 calls)
     g_psi        :      0.06s CPU      0.04s WALL (     253 calls)
     cdiaghg      :      0.03s CPU      0.04s WALL (     363 calls)

     Called by h_psi:
     add_vuspsi   :      0.04s CPU      0.04s WALL (     373 calls)

     General routines
     calbec       :      0.05s CPU      0.05s WALL (     393 calls)
     fft          :      0.04s CPU      0.04s WALL (      52 calls)
     fftw         :      1.67s CPU      1.62s WALL (    3146 calls)
     davcio       :      0.02s CPU      0.03s WALL (     360 calls)
 
 
     PWSCF        :     3.01s CPU         3.09s WALL

 
   This run was terminated on:   3:25:30  23Jun2014            

=------------------------------------------------------------------------------=
   JOB DONE.
=------------------------------------------------------------------------------=
