
     Program PWSCF v.4.3.2      starts on 23Jun2014 at  3:20:10 

     This program is part of the open-source Quantum ESPRESSO suite
     for quantum simulation of materials; please cite
         "P. Giannozzi et al., J. Phys.:Condens. Matter 21 395502 (2009);
          URL http://www.quantum-espresso.org", 
     in publications or presentations arising from this work. More details at
     http://www.quantum-espresso.org/wiki/index.php/Citing_Quantum-ESPRESSO

     Current dimensions of program PWSCF are:
     Max number of different atomic species (ntypx) = 10
     Max number of k-points (npk) =  40000
     Max angular momentum in pseudopotentials (lmaxx) =  3
     Waiting for input...
     Reading input from stdin
Warning: card   &IONS ignored
Warning: card   / ignored
Warning: card   &CELL ignored
Warning: card   / ignored
 
     G-vector sticks info
     --------------------
     sticks:   dense  smooth     PW     G-vecs:    dense   smooth      PW
     Sum         151     151     55                 1243     1243     283
 


     bravais-lattice index     =            2
     lattice parameter (alat)  =      10.5000  a.u.
     unit-cell volume          =     289.4062 (a.u.)^3
     number of atoms/cell      =            2
     number of atomic types    =            2
     number of electrons       =         8.00
     number of Kohn-Sham states=            4
     kinetic-energy cutoff     =      10.0000  Ry
     charge density cutoff     =      40.0000  Ry
     convergence threshold     =      1.0E-10
     mixing beta               =       0.5000
     number of iterations used =            8  plain     mixing
     Exchange-correlation      =  SLA  PZ   NOGX NOGC ( 1 1 0 0 0)
     EXX-fraction              =        0.00

     celldm(1)=  10.500000  celldm(2)=   0.000000  celldm(3)=   0.000000
     celldm(4)=   0.000000  celldm(5)=   0.000000  celldm(6)=   0.000000

     crystal axes: (cart. coord. in units of alat)
               a(1) = (  -0.500000   0.000000   0.500000 )  
               a(2) = (   0.000000   0.500000   0.500000 )  
               a(3) = (  -0.500000   0.500000   0.000000 )  

     reciprocal axes: (cart. coord. in units 2 pi/alat)
               b(1) = ( -1.000000 -1.000000  1.000000 )  
               b(2) = (  1.000000  1.000000  1.000000 )  
               b(3) = ( -1.000000  1.000000 -1.000000 )  


     PseudoPot. # 1 for Al read from file:
     ../../pseudo/Al.pz-vbc.UPF
     MD5 check sum: 614279c88ff8d45c90147292d03ed420
     Pseudo is Norm-conserving, Zval =  3.0
     Generated by new atomic code, or converted to UPF format
     Using radial grid of  171 points,  2 beta functions with: 
                l(1) =   0
                l(2) =   1

     PseudoPot. # 2 for As read from file:
     ../../pseudo/As.pz-bhs.UPF
     MD5 check sum: 451cd3365afcfc94d28b1934951c34a8
     Pseudo is Norm-conserving, Zval =  5.0
     Generated by new atomic code, or converted to UPF format
     Using radial grid of  525 points,  2 beta functions with: 
                l(1) =   0
                l(2) =   1

     atomic species   valence    mass     pseudopotential
        Al             3.00    26.98000     Al( 1.00)
        As             5.00    74.92000     As( 1.00)

     24 Sym.Ops. (no inversion)


   Cartesian axes

     site n.     atom                  positions (alat units)
         1           Al  tau(   1) = (   0.0000000   0.0000000   0.0000000  )
         2           As  tau(   2) = (   0.2500000   0.2500000   0.2500000  )

     number of k points=    10
                       cart. coord. in units 2pi/alat
        k(    1) = (  -0.1250000   0.1250000   0.1250000), wk =   0.0625000
        k(    2) = (  -0.3750000   0.3750000  -0.1250000), wk =   0.1875000
        k(    3) = (   0.3750000  -0.3750000   0.6250000), wk =   0.1875000
        k(    4) = (   0.1250000  -0.1250000   0.3750000), wk =   0.1875000
        k(    5) = (  -0.1250000   0.6250000   0.1250000), wk =   0.1875000
        k(    6) = (   0.6250000  -0.1250000   0.8750000), wk =   0.3750000
        k(    7) = (   0.3750000   0.1250000   0.6250000), wk =   0.3750000
        k(    8) = (  -0.1250000  -0.8750000   0.1250000), wk =   0.1875000
        k(    9) = (  -0.3750000   0.3750000   0.3750000), wk =   0.0625000
        k(   10) = (   0.3750000  -0.3750000   1.1250000), wk =   0.1875000

     Dense  grid:     1243 G-vectors     FFT dimensions: (  15,  15,  15)

     Largest allocated arrays     est. size (Mb)     dimensions
        Kohn-Sham Wavefunctions         0.01 Mb     (    159,    4)
        NL pseudopotentials             0.02 Mb     (    159,    8)
        Each V/rho on FFT grid          0.05 Mb     (   3375)
        Each G-vector array             0.01 Mb     (   1243)
        G-vector shells                 0.00 Mb     (     39)
     Largest temporary arrays     est. size (Mb)     dimensions
        Auxiliary wavefunctions         0.04 Mb     (    159,   16)
        Each subspace H/S matrix        0.00 Mb     (  16,  16)
        Each <psi_i|beta_j> matrix      0.00 Mb     (      8,    4)
        Arrays for rho mixing           0.41 Mb     (   3375,   8)

     Initial potential from superposition of free atoms

     starting charge    7.99774, renormalised to    8.00000
     Starting wfc are    8 atomic wfcs

     total cpu time spent up to now is        0.1 secs

     per-process dynamical memory:     1.1 Mb

     Self-consistent Calculation

     iteration #  1     ecut=    10.00 Ry     beta=0.50
     Davidson diagonalization with overlap
     ethr =  1.00E-02,  avg # of iterations =  2.0

     Threshold (ethr) on eigenvalues was too large:
     Diagonalizing with lowered threshold

     Davidson diagonalization with overlap
     ethr =  7.83E-04,  avg # of iterations =  1.0

     total cpu time spent up to now is        0.1 secs

     total energy              =     -16.88797905 Ry
     Harris-Foulkes estimate   =     -16.90589172 Ry
     estimated scf accuracy    <       0.06229900 Ry

     iteration #  2     ecut=    10.00 Ry     beta=0.50
     Davidson diagonalization with overlap
     ethr =  7.79E-04,  avg # of iterations =  1.0

     total cpu time spent up to now is        0.1 secs

     total energy              =     -16.89095427 Ry
     Harris-Foulkes estimate   =     -16.89195302 Ry
     estimated scf accuracy    <       0.00811158 Ry

     iteration #  3     ecut=    10.00 Ry     beta=0.50
     Davidson diagonalization with overlap
     ethr =  1.01E-04,  avg # of iterations =  1.9

     total cpu time spent up to now is        0.2 secs

     total energy              =     -16.89163121 Ry
     Harris-Foulkes estimate   =     -16.89172795 Ry
     estimated scf accuracy    <       0.00069458 Ry

     iteration #  4     ecut=    10.00 Ry     beta=0.50
     Davidson diagonalization with overlap
     ethr =  8.68E-06,  avg # of iterations =  2.7

     total cpu time spent up to now is        0.2 secs

     total energy              =     -16.89175575 Ry
     Harris-Foulkes estimate   =     -16.89176825 Ry
     estimated scf accuracy    <       0.00002697 Ry

     iteration #  5     ecut=    10.00 Ry     beta=0.50
     Davidson diagonalization with overlap
     ethr =  3.37E-07,  avg # of iterations =  2.6

     total cpu time spent up to now is        0.2 secs

     total energy              =     -16.89176099 Ry
     Harris-Foulkes estimate   =     -16.89176178 Ry
     estimated scf accuracy    <       0.00000271 Ry

     iteration #  6     ecut=    10.00 Ry     beta=0.50
     Davidson diagonalization with overlap
     ethr =  3.38E-08,  avg # of iterations =  2.1

     total cpu time spent up to now is        0.2 secs

     total energy              =     -16.89176087 Ry
     Harris-Foulkes estimate   =     -16.89176145 Ry
     estimated scf accuracy    <       0.00000104 Ry

     iteration #  7     ecut=    10.00 Ry     beta=0.50
     Davidson diagonalization with overlap
     ethr =  1.30E-08,  avg # of iterations =  2.0

     total cpu time spent up to now is        0.3 secs

     total energy              =     -16.89176108 Ry
     Harris-Foulkes estimate   =     -16.89176108 Ry
     estimated scf accuracy    <          5.1E-09 Ry

     iteration #  8     ecut=    10.00 Ry     beta=0.50
     Davidson diagonalization with overlap
     ethr =  6.42E-11,  avg # of iterations =  3.4

     total cpu time spent up to now is        0.3 secs

     total energy              =     -16.89176108 Ry
     Harris-Foulkes estimate   =     -16.89176110 Ry
     estimated scf accuracy    <       0.00000003 Ry

     iteration #  9     ecut=    10.00 Ry     beta=0.50
     Davidson diagonalization with overlap
     ethr =  6.42E-11,  avg # of iterations =  3.0

     total cpu time spent up to now is        0.3 secs

     total energy              =     -16.89176108 Ry
     Harris-Foulkes estimate   =     -16.89176108 Ry
     estimated scf accuracy    <          4.0E-09 Ry

     iteration # 10     ecut=    10.00 Ry     beta=0.50
     Davidson diagonalization with overlap
     ethr =  4.99E-11,  avg # of iterations =  2.0

     total cpu time spent up to now is        0.4 secs

     End of self-consistent calculation

          k =-0.1250 0.1250 0.1250 (   159 PWs)   bands (ev):

    -6.6183   3.8296   4.9987   4.9987

          k =-0.3750 0.3750-0.1250 (   150 PWs)   bands (ev):

    -5.7480   1.2135   3.4650   4.6814

          k = 0.3750-0.3750 0.6250 (   157 PWs)   bands (ev):

    -5.0777  -0.3712   3.4586   4.0538

          k = 0.1250-0.1250 0.3750 (   157 PWs)   bands (ev):

    -6.1786   2.3763   4.2557   4.3224

          k =-0.1250 0.6250 0.1250 (   153 PWs)   bands (ev):

    -5.3761   0.9922   3.1432   3.5050

          k = 0.6250-0.1250 0.8750 (   157 PWs)   bands (ev):

    -4.5907  -0.0135   1.8036   2.8702

          k = 0.3750 0.1250 0.6250 (   153 PWs)   bands (ev):

    -5.1239   0.3491   2.5466   3.7717

          k =-0.1250-0.8750 0.1250 (   154 PWs)   bands (ev):

    -4.6033  -0.0939   2.4247   3.0843

          k =-0.3750 0.3750 0.3750 (   153 PWs)   bands (ev):

    -5.4886   0.1426   4.4315   4.4315

          k = 0.3750-0.3750 1.1250 (   156 PWs)   bands (ev):

    -4.8037  -0.0534   1.8938   3.7880

!    total energy              =     -16.89176108 Ry
     Harris-Foulkes estimate   =     -16.89176108 Ry
     estimated scf accuracy    <          5.0E-11 Ry

     The total energy is the sum of the following terms:

     one-electron contribution =       3.55123113 Ry
     hartree contribution      =       1.50994180 Ry
     xc contribution           =      -4.81546832 Ry
     ewald contribution        =     -17.13746568 Ry

     convergence has been achieved in  10 iterations

     Forces acting on atoms (Ry/au):

     atom    1 type  1   force =     0.00000000    0.00000000    0.00000000
     atom    2 type  2   force =     0.00000000    0.00000000    0.00000000

     Total force =     0.000000     Total SCF correction =     0.000000


     entering subroutine stress ...

          total   stress  (Ry/bohr**3)                   (kbar)     P=  -81.88
  -0.00055660   0.00000000   0.00000000        -81.88      0.00      0.00
   0.00000000  -0.00055660   0.00000000          0.00    -81.88      0.00
   0.00000000   0.00000000  -0.00055660          0.00      0.00    -81.88


     Writing output data file alas.save
 
     init_run     :      0.05s CPU      0.05s WALL (       1 calls)
     electrons    :      0.28s CPU      0.29s WALL (       1 calls)
     forces       :      0.00s CPU      0.00s WALL (       1 calls)
     stress       :      0.01s CPU      0.01s WALL (       1 calls)

     Called by init_run:
     wfcinit      :      0.02s CPU      0.01s WALL (       1 calls)
     potinit      :      0.00s CPU      0.00s WALL (       1 calls)

     Called by electrons:
     c_bands      :      0.22s CPU      0.22s WALL (      11 calls)
     sum_band     :      0.04s CPU      0.04s WALL (      11 calls)
     v_of_rho     :      0.01s CPU      0.01s WALL (      11 calls)
     mix_rho      :      0.00s CPU      0.00s WALL (      11 calls)

     Called by c_bands:
     init_us_2    :      0.01s CPU      0.01s WALL (     250 calls)
     cegterg      :      0.20s CPU      0.21s WALL (     110 calls)

     Called by *egterg:
     h_psi        :      0.16s CPU      0.17s WALL (     357 calls)
     g_psi        :      0.00s CPU      0.00s WALL (     237 calls)
     cdiaghg      :      0.02s CPU      0.02s WALL (     337 calls)

     Called by h_psi:
     add_vuspsi   :      0.00s CPU      0.01s WALL (     357 calls)

     General routines
     calbec       :      0.01s CPU      0.01s WALL (     377 calls)
     fft          :      0.00s CPU      0.00s WALL (      50 calls)
     fftw         :      0.15s CPU      0.15s WALL (    3038 calls)
     davcio       :      0.00s CPU      0.00s WALL (     360 calls)
 
 
     PWSCF        :     0.42s CPU         0.44s WALL

 
   This run was terminated on:   3:20:11  23Jun2014            

=------------------------------------------------------------------------------=
   JOB DONE.
=------------------------------------------------------------------------------=
