
     Program PWSCF v.4.3.2      starts on 23Jun2014 at  3:25:41 

     This program is part of the open-source Quantum ESPRESSO suite
     for quantum simulation of materials; please cite
         "P. Giannozzi et al., J. Phys.:Condens. Matter 21 395502 (2009);
          URL http://www.quantum-espresso.org", 
     in publications or presentations arising from this work. More details at
     http://www.quantum-espresso.org/wiki/index.php/Citing_Quantum-ESPRESSO

     Current dimensions of program PWSCF are:
     Max number of different atomic species (ntypx) = 10
     Max number of k-points (npk) =  40000
     Max angular momentum in pseudopotentials (lmaxx) =  3
     Waiting for input...
     Reading input from stdin
Warning: card   &IONS ignored
Warning: card   / ignored
Warning: card   &CELL ignored
Warning: card   / ignored
 
     G-vector sticks info
     --------------------
     sticks:   dense  smooth     PW     G-vecs:    dense   smooth      PW
     Sum         913     913    271                18149    18149    2975
 


     bravais-lattice index     =            2
     lattice parameter (alat)  =      10.5000  a.u.
     unit-cell volume          =     289.4062 (a.u.)^3
     number of atoms/cell      =            2
     number of atomic types    =            2
     number of electrons       =         8.00
     number of Kohn-Sham states=            4
     kinetic-energy cutoff     =      60.0000  Ry
     charge density cutoff     =     240.0000  Ry
     convergence threshold     =      1.0E-10
     mixing beta               =       0.5000
     number of iterations used =            8  plain     mixing
     Exchange-correlation      =  SLA  PZ   NOGX NOGC ( 1 1 0 0 0)
     EXX-fraction              =        0.00

     celldm(1)=  10.500000  celldm(2)=   0.000000  celldm(3)=   0.000000
     celldm(4)=   0.000000  celldm(5)=   0.000000  celldm(6)=   0.000000

     crystal axes: (cart. coord. in units of alat)
               a(1) = (  -0.500000   0.000000   0.500000 )  
               a(2) = (   0.000000   0.500000   0.500000 )  
               a(3) = (  -0.500000   0.500000   0.000000 )  

     reciprocal axes: (cart. coord. in units 2 pi/alat)
               b(1) = ( -1.000000 -1.000000  1.000000 )  
               b(2) = (  1.000000  1.000000  1.000000 )  
               b(3) = ( -1.000000  1.000000 -1.000000 )  


     PseudoPot. # 1 for Al read from file:
     ../../pseudo/Al.pz-vbc.UPF
     MD5 check sum: 614279c88ff8d45c90147292d03ed420
     Pseudo is Norm-conserving, Zval =  3.0
     Generated by new atomic code, or converted to UPF format
     Using radial grid of  171 points,  2 beta functions with: 
                l(1) =   0
                l(2) =   1

     PseudoPot. # 2 for As read from file:
     ../../pseudo/As.pz-bhs.UPF
     MD5 check sum: 451cd3365afcfc94d28b1934951c34a8
     Pseudo is Norm-conserving, Zval =  5.0
     Generated by new atomic code, or converted to UPF format
     Using radial grid of  525 points,  2 beta functions with: 
                l(1) =   0
                l(2) =   1

     atomic species   valence    mass     pseudopotential
        Al             3.00    26.98000     Al( 1.00)
        As             5.00    74.92000     As( 1.00)

     24 Sym.Ops. (no inversion)


   Cartesian axes

     site n.     atom                  positions (alat units)
         1           Al  tau(   1) = (   0.0000000   0.0000000   0.0000000  )
         2           As  tau(   2) = (   0.2500000   0.2500000   0.2500000  )

     number of k points=    10
                       cart. coord. in units 2pi/alat
        k(    1) = (  -0.1250000   0.1250000   0.1250000), wk =   0.0625000
        k(    2) = (  -0.3750000   0.3750000  -0.1250000), wk =   0.1875000
        k(    3) = (   0.3750000  -0.3750000   0.6250000), wk =   0.1875000
        k(    4) = (   0.1250000  -0.1250000   0.3750000), wk =   0.1875000
        k(    5) = (  -0.1250000   0.6250000   0.1250000), wk =   0.1875000
        k(    6) = (   0.6250000  -0.1250000   0.8750000), wk =   0.3750000
        k(    7) = (   0.3750000   0.1250000   0.6250000), wk =   0.3750000
        k(    8) = (  -0.1250000  -0.8750000   0.1250000), wk =   0.1875000
        k(    9) = (  -0.3750000   0.3750000   0.3750000), wk =   0.0625000
        k(   10) = (   0.3750000  -0.3750000   1.1250000), wk =   0.1875000

     Dense  grid:    18149 G-vectors     FFT dimensions: (  40,  40,  40)

     Largest allocated arrays     est. size (Mb)     dimensions
        Kohn-Sham Wavefunctions         0.14 Mb     (   2281,    4)
        NL pseudopotentials             0.28 Mb     (   2281,    8)
        Each V/rho on FFT grid          0.98 Mb     (  64000)
        Each G-vector array             0.14 Mb     (  18149)
        G-vector shells                 0.00 Mb     (    225)
     Largest temporary arrays     est. size (Mb)     dimensions
        Auxiliary wavefunctions         0.56 Mb     (   2281,   16)
        Each subspace H/S matrix        0.00 Mb     (  16,  16)
        Each <psi_i|beta_j> matrix      0.00 Mb     (      8,    4)
        Arrays for rho mixing           7.81 Mb     (  64000,   8)

     Initial potential from superposition of free atoms

     starting charge    7.99774, renormalised to    8.00000
     Starting wfc are    8 atomic wfcs

     total cpu time spent up to now is        0.5 secs

     per-process dynamical memory:    11.0 Mb

     Self-consistent Calculation

     iteration #  1     ecut=    60.00 Ry     beta=0.50
     Davidson diagonalization with overlap
     ethr =  1.00E-02,  avg # of iterations =  2.0

     total cpu time spent up to now is        1.2 secs

     total energy              =     -16.99446818 Ry
     Harris-Foulkes estimate   =     -17.02824357 Ry
     estimated scf accuracy    <       0.08708082 Ry

     iteration #  2     ecut=    60.00 Ry     beta=0.50
     Davidson diagonalization with overlap
     ethr =  1.09E-03,  avg # of iterations =  2.9

     total cpu time spent up to now is        1.9 secs

     total energy              =     -17.01875264 Ry
     Harris-Foulkes estimate   =     -17.02019769 Ry
     estimated scf accuracy    <       0.00884856 Ry

     iteration #  3     ecut=    60.00 Ry     beta=0.50
     Davidson diagonalization with overlap
     ethr =  1.11E-04,  avg # of iterations =  1.3

     total cpu time spent up to now is        2.4 secs

     total energy              =     -17.01906676 Ry
     Harris-Foulkes estimate   =     -17.01922274 Ry
     estimated scf accuracy    <       0.00173722 Ry

     iteration #  4     ecut=    60.00 Ry     beta=0.50
     Davidson diagonalization with overlap
     ethr =  2.17E-05,  avg # of iterations =  2.0

     total cpu time spent up to now is        3.0 secs

     total energy              =     -17.01923507 Ry
     Harris-Foulkes estimate   =     -17.01927784 Ry
     estimated scf accuracy    <       0.00012274 Ry

     iteration #  5     ecut=    60.00 Ry     beta=0.50
     Davidson diagonalization with overlap
     ethr =  1.53E-06,  avg # of iterations =  2.8

     total cpu time spent up to now is        3.6 secs

     total energy              =     -17.01922808 Ry
     Harris-Foulkes estimate   =     -17.01925736 Ry
     estimated scf accuracy    <       0.00004937 Ry

     iteration #  6     ecut=    60.00 Ry     beta=0.50
     Davidson diagonalization with overlap
     ethr =  6.17E-07,  avg # of iterations =  2.0

     total cpu time spent up to now is        4.3 secs

     total energy              =     -17.01924129 Ry
     Harris-Foulkes estimate   =     -17.01924623 Ry
     estimated scf accuracy    <       0.00001058 Ry

     iteration #  7     ecut=    60.00 Ry     beta=0.50
     Davidson diagonalization with overlap
     ethr =  1.32E-07,  avg # of iterations =  2.0

     total cpu time spent up to now is        4.9 secs

     total energy              =     -17.01924240 Ry
     Harris-Foulkes estimate   =     -17.01924262 Ry
     estimated scf accuracy    <       0.00000062 Ry

     iteration #  8     ecut=    60.00 Ry     beta=0.50
     Davidson diagonalization with overlap
     ethr =  7.79E-09,  avg # of iterations =  2.9

     total cpu time spent up to now is        5.6 secs

     total energy              =     -17.01924250 Ry
     Harris-Foulkes estimate   =     -17.01924254 Ry
     estimated scf accuracy    <       0.00000005 Ry

     iteration #  9     ecut=    60.00 Ry     beta=0.50
     Davidson diagonalization with overlap
     ethr =  6.81E-10,  avg # of iterations =  2.9

     total cpu time spent up to now is        6.4 secs

     total energy              =     -17.01924252 Ry
     Harris-Foulkes estimate   =     -17.01924253 Ry
     estimated scf accuracy    <       0.00000003 Ry

     iteration # 10     ecut=    60.00 Ry     beta=0.50
     Davidson diagonalization with overlap
     ethr =  3.26E-10,  avg # of iterations =  1.2

     total cpu time spent up to now is        6.9 secs

     total energy              =     -17.01924252 Ry
     Harris-Foulkes estimate   =     -17.01924253 Ry
     estimated scf accuracy    <          4.6E-09 Ry

     iteration # 11     ecut=    60.00 Ry     beta=0.50
     Davidson diagonalization with overlap
     ethr =  5.73E-11,  avg # of iterations =  2.0

     total cpu time spent up to now is        7.5 secs

     total energy              =     -17.01924252 Ry
     Harris-Foulkes estimate   =     -17.01924253 Ry
     estimated scf accuracy    <          8.2E-10 Ry

     iteration # 12     ecut=    60.00 Ry     beta=0.50
     Davidson diagonalization with overlap
     ethr =  1.02E-11,  avg # of iterations =  3.0

     total cpu time spent up to now is        8.3 secs

     total energy              =     -17.01924252 Ry
     Harris-Foulkes estimate   =     -17.01924253 Ry
     estimated scf accuracy    <          1.4E-09 Ry

     iteration # 13     ecut=    60.00 Ry     beta=0.50
     Davidson diagonalization with overlap
     ethr =  1.02E-11,  avg # of iterations =  2.0

     total cpu time spent up to now is        9.0 secs

     total energy              =     -17.01924252 Ry
     Harris-Foulkes estimate   =     -17.01924253 Ry
     estimated scf accuracy    <          1.9E-10 Ry

     iteration # 14     ecut=    60.00 Ry     beta=0.50
     Davidson diagonalization with overlap
     ethr =  2.37E-12,  avg # of iterations =  2.8

     total cpu time spent up to now is        9.7 secs

     End of self-consistent calculation

          k =-0.1250 0.1250 0.1250 (  2256 PWs)   bands (ev):

    -6.8656   3.6987   4.9581   4.9581

          k =-0.3750 0.3750-0.1250 (  2266 PWs)   bands (ev):

    -6.0955   1.0440   3.3926   4.6336

          k = 0.3750-0.3750 0.6250 (  2278 PWs)   bands (ev):

    -5.4366  -0.4775   3.3760   4.0040

          k = 0.1250-0.1250 0.3750 (  2258 PWs)   bands (ev):

    -6.4547   2.2006   4.2089   4.2584

          k =-0.1250 0.6250 0.1250 (  2281 PWs)   bands (ev):

    -5.7305   0.7965   3.0803   3.4548

          k = 0.6250-0.1250 0.8750 (  2267 PWs)   bands (ev):

    -4.9880  -0.1284   1.7397   2.8173

          k = 0.3750 0.1250 0.6250 (  2274 PWs)   bands (ev):

    -5.5001   0.1957   2.4710   3.7174

          k =-0.1250-0.8750 0.1250 (  2275 PWs)   bands (ev):

    -5.0237  -0.2347   2.3679   3.0305

          k =-0.3750 0.3750 0.3750 (  2265 PWs)   bands (ev):

    -5.8231   0.0022   4.3828   4.3828

          k = 0.3750-0.3750 1.1250 (  2281 PWs)   bands (ev):

    -5.1856  -0.1702   1.8184   3.7379

!    total energy              =     -17.01924252 Ry
     Harris-Foulkes estimate   =     -17.01924252 Ry
     estimated scf accuracy    <          2.6E-12 Ry

     The total energy is the sum of the following terms:

     one-electron contribution =       3.40007309 Ry
     hartree contribution      =       1.55082847 Ry
     xc contribution           =      -4.83267840 Ry
     ewald contribution        =     -17.13746568 Ry

     convergence has been achieved in  14 iterations

     Forces acting on atoms (Ry/au):

     atom    1 type  1   force =     0.00000000    0.00000000    0.00000000
     atom    2 type  2   force =     0.00000000    0.00000000    0.00000000

     Total force =     0.000000     Total SCF correction =     0.000000


     entering subroutine stress ...

          total   stress  (Ry/bohr**3)                   (kbar)     P=   21.14
   0.00014371   0.00000000   0.00000000         21.14      0.00      0.00
   0.00000000   0.00014371   0.00000000          0.00     21.14      0.00
   0.00000000   0.00000000   0.00014371          0.00      0.00     21.14


     Writing output data file alas.save
 
     init_run     :      0.44s CPU      0.47s WALL (       1 calls)
     electrons    :      8.84s CPU      9.14s WALL (       1 calls)
     forces       :      0.03s CPU      0.03s WALL (       1 calls)
     stress       :      0.15s CPU      0.17s WALL (       1 calls)

     Called by init_run:
     wfcinit      :      0.32s CPU      0.34s WALL (       1 calls)
     potinit      :      0.03s CPU      0.03s WALL (       1 calls)

     Called by electrons:
     c_bands      :      6.94s CPU      7.15s WALL (      14 calls)
     sum_band     :      1.46s CPU      1.52s WALL (      14 calls)
     v_of_rho     :      0.17s CPU      0.17s WALL (      15 calls)
     mix_rho      :      0.17s CPU      0.18s WALL (      14 calls)

     Called by c_bands:
     init_us_2    :      0.23s CPU      0.27s WALL (     310 calls)
     cegterg      :      6.72s CPU      6.92s WALL (     140 calls)

     Called by *egterg:
     h_psi        :      6.44s CPU      6.67s WALL (     468 calls)
     g_psi        :      0.09s CPU      0.07s WALL (     318 calls)
     cdiaghg      :      0.05s CPU      0.06s WALL (     458 calls)

     Called by h_psi:
     add_vuspsi   :      0.09s CPU      0.07s WALL (     468 calls)

     General routines
     calbec       :      0.07s CPU      0.12s WALL (     488 calls)
     fft          :      0.18s CPU      0.19s WALL (      64 calls)
     fftw         :      6.41s CPU      6.60s WALL (    3900 calls)
     davcio       :      0.04s CPU      0.06s WALL (     450 calls)
 
 
     PWSCF        :     9.55s CPU         9.93s WALL

 
   This run was terminated on:   3:25:51  23Jun2014            

=------------------------------------------------------------------------------=
   JOB DONE.
=------------------------------------------------------------------------------=
