
     Program PWSCF v.4.3.2      starts on 23Jun2014 at  3:25:30 

     This program is part of the open-source Quantum ESPRESSO suite
     for quantum simulation of materials; please cite
         "P. Giannozzi et al., J. Phys.:Condens. Matter 21 395502 (2009);
          URL http://www.quantum-espresso.org", 
     in publications or presentations arising from this work. More details at
     http://www.quantum-espresso.org/wiki/index.php/Citing_Quantum-ESPRESSO

     Current dimensions of program PWSCF are:
     Max number of different atomic species (ntypx) = 10
     Max number of k-points (npk) =  40000
     Max angular momentum in pseudopotentials (lmaxx) =  3
     Waiting for input...
     Reading input from stdin
Warning: card   &IONS ignored
Warning: card   / ignored
Warning: card   &CELL ignored
Warning: card   / ignored
 
     G-vector sticks info
     --------------------
     sticks:   dense  smooth     PW     G-vecs:    dense   smooth      PW
     Sum         757     757    235                13803    13803    2277
 


     bravais-lattice index     =            2
     lattice parameter (alat)  =      10.5000  a.u.
     unit-cell volume          =     289.4062 (a.u.)^3
     number of atoms/cell      =            2
     number of atomic types    =            2
     number of electrons       =         8.00
     number of Kohn-Sham states=            4
     kinetic-energy cutoff     =      50.0000  Ry
     charge density cutoff     =     200.0000  Ry
     convergence threshold     =      1.0E-10
     mixing beta               =       0.5000
     number of iterations used =            8  plain     mixing
     Exchange-correlation      =  SLA  PZ   NOGX NOGC ( 1 1 0 0 0)
     EXX-fraction              =        0.00

     celldm(1)=  10.500000  celldm(2)=   0.000000  celldm(3)=   0.000000
     celldm(4)=   0.000000  celldm(5)=   0.000000  celldm(6)=   0.000000

     crystal axes: (cart. coord. in units of alat)
               a(1) = (  -0.500000   0.000000   0.500000 )  
               a(2) = (   0.000000   0.500000   0.500000 )  
               a(3) = (  -0.500000   0.500000   0.000000 )  

     reciprocal axes: (cart. coord. in units 2 pi/alat)
               b(1) = ( -1.000000 -1.000000  1.000000 )  
               b(2) = (  1.000000  1.000000  1.000000 )  
               b(3) = ( -1.000000  1.000000 -1.000000 )  


     PseudoPot. # 1 for Al read from file:
     ../../pseudo/Al.pz-vbc.UPF
     MD5 check sum: 614279c88ff8d45c90147292d03ed420
     Pseudo is Norm-conserving, Zval =  3.0
     Generated by new atomic code, or converted to UPF format
     Using radial grid of  171 points,  2 beta functions with: 
                l(1) =   0
                l(2) =   1

     PseudoPot. # 2 for As read from file:
     ../../pseudo/As.pz-bhs.UPF
     MD5 check sum: 451cd3365afcfc94d28b1934951c34a8
     Pseudo is Norm-conserving, Zval =  5.0
     Generated by new atomic code, or converted to UPF format
     Using radial grid of  525 points,  2 beta functions with: 
                l(1) =   0
                l(2) =   1

     atomic species   valence    mass     pseudopotential
        Al             3.00    26.98000     Al( 1.00)
        As             5.00    74.92000     As( 1.00)

     24 Sym.Ops. (no inversion)


   Cartesian axes

     site n.     atom                  positions (alat units)
         1           Al  tau(   1) = (   0.0000000   0.0000000   0.0000000  )
         2           As  tau(   2) = (   0.2500000   0.2500000   0.2500000  )

     number of k points=    10
                       cart. coord. in units 2pi/alat
        k(    1) = (  -0.1250000   0.1250000   0.1250000), wk =   0.0625000
        k(    2) = (  -0.3750000   0.3750000  -0.1250000), wk =   0.1875000
        k(    3) = (   0.3750000  -0.3750000   0.6250000), wk =   0.1875000
        k(    4) = (   0.1250000  -0.1250000   0.3750000), wk =   0.1875000
        k(    5) = (  -0.1250000   0.6250000   0.1250000), wk =   0.1875000
        k(    6) = (   0.6250000  -0.1250000   0.8750000), wk =   0.3750000
        k(    7) = (   0.3750000   0.1250000   0.6250000), wk =   0.3750000
        k(    8) = (  -0.1250000  -0.8750000   0.1250000), wk =   0.1875000
        k(    9) = (  -0.3750000   0.3750000   0.3750000), wk =   0.0625000
        k(   10) = (   0.3750000  -0.3750000   1.1250000), wk =   0.1875000

     Dense  grid:    13803 G-vectors     FFT dimensions: (  36,  36,  36)

     Largest allocated arrays     est. size (Mb)     dimensions
        Kohn-Sham Wavefunctions         0.11 Mb     (   1747,    4)
        NL pseudopotentials             0.21 Mb     (   1747,    8)
        Each V/rho on FFT grid          0.71 Mb     (  46656)
        Each G-vector array             0.11 Mb     (  13803)
        G-vector shells                 0.00 Mb     (    188)
     Largest temporary arrays     est. size (Mb)     dimensions
        Auxiliary wavefunctions         0.43 Mb     (   1747,   16)
        Each subspace H/S matrix        0.00 Mb     (  16,  16)
        Each <psi_i|beta_j> matrix      0.00 Mb     (      8,    4)
        Arrays for rho mixing           5.70 Mb     (  46656,   8)

     Initial potential from superposition of free atoms

     starting charge    7.99774, renormalised to    8.00000

     negative rho (up, down):  0.602E-04 0.000E+00
     Starting wfc are    8 atomic wfcs

     total cpu time spent up to now is        0.4 secs

     per-process dynamical memory:     8.4 Mb

     Self-consistent Calculation

     iteration #  1     ecut=    50.00 Ry     beta=0.50
     Davidson diagonalization with overlap
     ethr =  1.00E-02,  avg # of iterations =  2.0

     negative rho (up, down):  0.291E-04 0.000E+00

     total cpu time spent up to now is        0.8 secs

     total energy              =     -16.99785502 Ry
     Harris-Foulkes estimate   =     -17.03092839 Ry
     estimated scf accuracy    <       0.08417538 Ry

     iteration #  2     ecut=    50.00 Ry     beta=0.50
     Davidson diagonalization with overlap
     ethr =  1.05E-03,  avg # of iterations =  2.9

     negative rho (up, down):  0.133E-04 0.000E+00

     total cpu time spent up to now is        1.3 secs

     total energy              =     -17.01886137 Ry
     Harris-Foulkes estimate   =     -17.02035371 Ry
     estimated scf accuracy    <       0.00865068 Ry

     iteration #  3     ecut=    50.00 Ry     beta=0.50
     Davidson diagonalization with overlap
     ethr =  1.08E-04,  avg # of iterations =  1.3

     total cpu time spent up to now is        1.6 secs

     total energy              =     -17.01906798 Ry
     Harris-Foulkes estimate   =     -17.01926799 Ry
     estimated scf accuracy    <       0.00163985 Ry

     iteration #  4     ecut=    50.00 Ry     beta=0.50
     Davidson diagonalization with overlap
     ethr =  2.05E-05,  avg # of iterations =  1.9

     total cpu time spent up to now is        2.0 secs

     total energy              =     -17.01918651 Ry
     Harris-Foulkes estimate   =     -17.01923556 Ry
     estimated scf accuracy    <       0.00008144 Ry

     iteration #  5     ecut=    50.00 Ry     beta=0.50
     Davidson diagonalization with overlap
     ethr =  1.02E-06,  avg # of iterations =  2.9

     total cpu time spent up to now is        2.5 secs

     total energy              =     -17.01921578 Ry
     Harris-Foulkes estimate   =     -17.01922485 Ry
     estimated scf accuracy    <       0.00001638 Ry

     iteration #  6     ecut=    50.00 Ry     beta=0.50
     Davidson diagonalization with overlap
     ethr =  2.05E-07,  avg # of iterations =  2.0

     total cpu time spent up to now is        2.9 secs

     total energy              =     -17.01921888 Ry
     Harris-Foulkes estimate   =     -17.01921889 Ry
     estimated scf accuracy    <       0.00000008 Ry

     iteration #  7     ecut=    50.00 Ry     beta=0.50
     Davidson diagonalization with overlap
     ethr =  9.60E-10,  avg # of iterations =  3.6

     total cpu time spent up to now is        3.4 secs

     total energy              =     -17.01921902 Ry
     Harris-Foulkes estimate   =     -17.01921905 Ry
     estimated scf accuracy    <       0.00000005 Ry

     iteration #  8     ecut=    50.00 Ry     beta=0.50
     Davidson diagonalization with overlap
     ethr =  6.62E-10,  avg # of iterations =  2.1

     total cpu time spent up to now is        3.9 secs

     total energy              =     -17.01921903 Ry
     Harris-Foulkes estimate   =     -17.01921903 Ry
     estimated scf accuracy    <       0.00000001 Ry

     iteration #  9     ecut=    50.00 Ry     beta=0.50
     Davidson diagonalization with overlap
     ethr =  1.46E-10,  avg # of iterations =  2.0

     total cpu time spent up to now is        4.3 secs

     total energy              =     -17.01921903 Ry
     Harris-Foulkes estimate   =     -17.01921903 Ry
     estimated scf accuracy    <          6.2E-10 Ry

     iteration # 10     ecut=    50.00 Ry     beta=0.50
     Davidson diagonalization with overlap
     ethr =  7.78E-12,  avg # of iterations =  2.5

     total cpu time spent up to now is        4.8 secs

     total energy              =     -17.01921903 Ry
     Harris-Foulkes estimate   =     -17.01921903 Ry
     estimated scf accuracy    <          2.2E-10 Ry

     iteration # 11     ecut=    50.00 Ry     beta=0.50
     Davidson diagonalization with overlap
     ethr =  2.77E-12,  avg # of iterations =  2.0

     total cpu time spent up to now is        5.2 secs

     End of self-consistent calculation

          k =-0.1250 0.1250 0.1250 (  1747 PWs)   bands (ev):

    -6.8656   3.6987   4.9581   4.9581

          k =-0.3750 0.3750-0.1250 (  1732 PWs)   bands (ev):

    -6.0955   1.0440   3.3926   4.6336

          k = 0.3750-0.3750 0.6250 (  1729 PWs)   bands (ev):

    -5.4366  -0.4775   3.3761   4.0040

          k = 0.1250-0.1250 0.3750 (  1731 PWs)   bands (ev):

    -6.4546   2.2006   4.2089   4.2584

          k =-0.1250 0.6250 0.1250 (  1722 PWs)   bands (ev):

    -5.7304   0.7965   3.0803   3.4548

          k = 0.6250-0.1250 0.8750 (  1719 PWs)   bands (ev):

    -4.9880  -0.1284   1.7398   2.8173

          k = 0.3750 0.1250 0.6250 (  1732 PWs)   bands (ev):

    -5.5001   0.1958   2.4710   3.7174

          k =-0.1250-0.8750 0.1250 (  1722 PWs)   bands (ev):

    -5.0237  -0.2347   2.3679   3.0305

          k =-0.3750 0.3750 0.3750 (  1721 PWs)   bands (ev):

    -5.8231   0.0022   4.3828   4.3828

          k = 0.3750-0.3750 1.1250 (  1730 PWs)   bands (ev):

    -5.1855  -0.1701   1.8184   3.7379

!    total energy              =     -17.01921903 Ry
     Harris-Foulkes estimate   =     -17.01921903 Ry
     estimated scf accuracy    <          4.0E-12 Ry

     The total energy is the sum of the following terms:

     one-electron contribution =       3.40010426 Ry
     hartree contribution      =       1.55081705 Ry
     xc contribution           =      -4.83267463 Ry
     ewald contribution        =     -17.13746571 Ry

     convergence has been achieved in  11 iterations

     Forces acting on atoms (Ry/au):

     atom    1 type  1   force =     0.00000000    0.00000000    0.00000000
     atom    2 type  2   force =     0.00000000    0.00000000    0.00000000

     Total force =     0.000000     Total SCF correction =     0.000000


     entering subroutine stress ...

          total   stress  (Ry/bohr**3)                   (kbar)     P=   21.07
   0.00014326   0.00000000   0.00000000         21.07      0.00      0.00
   0.00000000   0.00014326   0.00000000          0.00     21.07      0.00
   0.00000000   0.00000000   0.00014326          0.00      0.00     21.07


     Writing output data file alas.save
 
     init_run     :      0.32s CPU      0.34s WALL (       1 calls)
     electrons    :      4.64s CPU      4.83s WALL (       1 calls)
     forces       :      0.02s CPU      0.03s WALL (       1 calls)
     stress       :      0.12s CPU      0.13s WALL (       1 calls)

     Called by init_run:
     wfcinit      :      0.21s CPU      0.22s WALL (       1 calls)
     potinit      :      0.02s CPU      0.02s WALL (       1 calls)

     Called by electrons:
     c_bands      :      3.65s CPU      3.80s WALL (      11 calls)
     sum_band     :      0.75s CPU      0.78s WALL (      11 calls)
     v_of_rho     :      0.10s CPU      0.10s WALL (      12 calls)
     mix_rho      :      0.07s CPU      0.08s WALL (      11 calls)

     Called by c_bands:
     init_us_2    :      0.20s CPU      0.16s WALL (     250 calls)
     cegterg      :      3.51s CPU      3.65s WALL (     110 calls)

     Called by *egterg:
     h_psi        :      3.36s CPU      3.51s WALL (     372 calls)
     g_psi        :      0.05s CPU      0.05s WALL (     252 calls)
     cdiaghg      :      0.05s CPU      0.05s WALL (     362 calls)

     Called by h_psi:
     add_vuspsi   :      0.02s CPU      0.05s WALL (     372 calls)

     General routines
     calbec       :      0.08s CPU      0.07s WALL (     392 calls)
     fft          :      0.07s CPU      0.10s WALL (      52 calls)
     fftw         :      3.28s CPU      3.46s WALL (    3168 calls)
     davcio       :      0.02s CPU      0.04s WALL (     360 calls)
 
 
     PWSCF        :     5.18s CPU         5.43s WALL

 
   This run was terminated on:   3:25:36  23Jun2014            

=------------------------------------------------------------------------------=
   JOB DONE.
=------------------------------------------------------------------------------=
