
     Program PWSCF v.4.3.2      starts on 23Jun2014 at  3:20:15 

     This program is part of the open-source Quantum ESPRESSO suite
     for quantum simulation of materials; please cite
         "P. Giannozzi et al., J. Phys.:Condens. Matter 21 395502 (2009);
          URL http://www.quantum-espresso.org", 
     in publications or presentations arising from this work. More details at
     http://www.quantum-espresso.org/wiki/index.php/Citing_Quantum-ESPRESSO

     Current dimensions of program PWSCF are:
     Max number of different atomic species (ntypx) = 10
     Max number of k-points (npk) =  40000
     Max angular momentum in pseudopotentials (lmaxx) =  3
     Waiting for input...
     Reading input from stdin
Warning: card   &IONS ignored
Warning: card   / ignored
Warning: card   &CELL ignored
Warning: card   / ignored
 
     G-vector sticks info
     --------------------
     sticks:   dense  smooth     PW     G-vecs:    dense   smooth      PW
     Sum         451     451    151                 6375     6375    1243
 


     bravais-lattice index     =            2
     lattice parameter (alat)  =      10.5000  a.u.
     unit-cell volume          =     289.4062 (a.u.)^3
     number of atoms/cell      =            2
     number of atomic types    =            2
     number of electrons       =         8.00
     number of Kohn-Sham states=            4
     kinetic-energy cutoff     =      30.0000  Ry
     charge density cutoff     =     120.0000  Ry
     convergence threshold     =      1.0E-10
     mixing beta               =       0.5000
     number of iterations used =            8  plain     mixing
     Exchange-correlation      =  SLA  PZ   NOGX NOGC ( 1 1 0 0 0)
     EXX-fraction              =        0.00

     celldm(1)=  10.500000  celldm(2)=   0.000000  celldm(3)=   0.000000
     celldm(4)=   0.000000  celldm(5)=   0.000000  celldm(6)=   0.000000

     crystal axes: (cart. coord. in units of alat)
               a(1) = (  -0.500000   0.000000   0.500000 )  
               a(2) = (   0.000000   0.500000   0.500000 )  
               a(3) = (  -0.500000   0.500000   0.000000 )  

     reciprocal axes: (cart. coord. in units 2 pi/alat)
               b(1) = ( -1.000000 -1.000000  1.000000 )  
               b(2) = (  1.000000  1.000000  1.000000 )  
               b(3) = ( -1.000000  1.000000 -1.000000 )  


     PseudoPot. # 1 for Al read from file:
     ../../pseudo/Al.pz-vbc.UPF
     MD5 check sum: 614279c88ff8d45c90147292d03ed420
     Pseudo is Norm-conserving, Zval =  3.0
     Generated by new atomic code, or converted to UPF format
     Using radial grid of  171 points,  2 beta functions with: 
                l(1) =   0
                l(2) =   1

     PseudoPot. # 2 for As read from file:
     ../../pseudo/As.pz-bhs.UPF
     MD5 check sum: 451cd3365afcfc94d28b1934951c34a8
     Pseudo is Norm-conserving, Zval =  5.0
     Generated by new atomic code, or converted to UPF format
     Using radial grid of  525 points,  2 beta functions with: 
                l(1) =   0
                l(2) =   1

     atomic species   valence    mass     pseudopotential
        Al             3.00    26.98000     Al( 1.00)
        As             5.00    74.92000     As( 1.00)

     24 Sym.Ops. (no inversion)


   Cartesian axes

     site n.     atom                  positions (alat units)
         1           Al  tau(   1) = (   0.0000000   0.0000000   0.0000000  )
         2           As  tau(   2) = (   0.2500000   0.2500000   0.2500000  )

     number of k points=    10
                       cart. coord. in units 2pi/alat
        k(    1) = (  -0.1250000   0.1250000   0.1250000), wk =   0.0625000
        k(    2) = (  -0.3750000   0.3750000  -0.1250000), wk =   0.1875000
        k(    3) = (   0.3750000  -0.3750000   0.6250000), wk =   0.1875000
        k(    4) = (   0.1250000  -0.1250000   0.3750000), wk =   0.1875000
        k(    5) = (  -0.1250000   0.6250000   0.1250000), wk =   0.1875000
        k(    6) = (   0.6250000  -0.1250000   0.8750000), wk =   0.3750000
        k(    7) = (   0.3750000   0.1250000   0.6250000), wk =   0.3750000
        k(    8) = (  -0.1250000  -0.8750000   0.1250000), wk =   0.1875000
        k(    9) = (  -0.3750000   0.3750000   0.3750000), wk =   0.0625000
        k(   10) = (   0.3750000  -0.3750000   1.1250000), wk =   0.1875000

     Dense  grid:     6375 G-vectors     FFT dimensions: (  25,  25,  25)

     Largest allocated arrays     est. size (Mb)     dimensions
        Kohn-Sham Wavefunctions         0.05 Mb     (    815,    4)
        NL pseudopotentials             0.10 Mb     (    815,    8)
        Each V/rho on FFT grid          0.24 Mb     (  15625)
        Each G-vector array             0.05 Mb     (   6375)
        G-vector shells                 0.00 Mb     (    114)
     Largest temporary arrays     est. size (Mb)     dimensions
        Auxiliary wavefunctions         0.20 Mb     (    815,   16)
        Each subspace H/S matrix        0.00 Mb     (  16,  16)
        Each <psi_i|beta_j> matrix      0.00 Mb     (      8,    4)
        Arrays for rho mixing           1.91 Mb     (  15625,   8)

     Initial potential from superposition of free atoms

     starting charge    7.99774, renormalised to    8.00000
     Starting wfc are    8 atomic wfcs

     total cpu time spent up to now is        0.2 secs

     per-process dynamical memory:     3.6 Mb

     Self-consistent Calculation

     iteration #  1     ecut=    30.00 Ry     beta=0.50
     Davidson diagonalization with overlap
     ethr =  1.00E-02,  avg # of iterations =  2.0

     Threshold (ethr) on eigenvalues was too large:
     Diagonalizing with lowered threshold

     Davidson diagonalization with overlap
     ethr =  8.99E-04,  avg # of iterations =  1.5

     total cpu time spent up to now is        0.5 secs

     total energy              =     -17.00919004 Ry
     Harris-Foulkes estimate   =     -17.03548912 Ry
     estimated scf accuracy    <       0.07124113 Ry

     iteration #  2     ecut=    30.00 Ry     beta=0.50
     Davidson diagonalization with overlap
     ethr =  8.91E-04,  avg # of iterations =  1.7

     total cpu time spent up to now is        0.6 secs

     total energy              =     -17.01475349 Ry
     Harris-Foulkes estimate   =     -17.01590751 Ry
     estimated scf accuracy    <       0.00707375 Ry

     iteration #  3     ecut=    30.00 Ry     beta=0.50
     Davidson diagonalization with overlap
     ethr =  8.84E-05,  avg # of iterations =  2.7

     total cpu time spent up to now is        0.8 secs

     total energy              =     -17.01563605 Ry
     Harris-Foulkes estimate   =     -17.01582157 Ry
     estimated scf accuracy    <       0.00091358 Ry

     iteration #  4     ecut=    30.00 Ry     beta=0.50
     Davidson diagonalization with overlap
     ethr =  1.14E-05,  avg # of iterations =  2.0

     total cpu time spent up to now is        1.0 secs

     total energy              =     -17.01571173 Ry
     Harris-Foulkes estimate   =     -17.01571811 Ry
     estimated scf accuracy    <       0.00001601 Ry

     iteration #  5     ecut=    30.00 Ry     beta=0.50
     Davidson diagonalization with overlap
     ethr =  2.00E-07,  avg # of iterations =  3.0

     total cpu time spent up to now is        1.2 secs

     total energy              =     -17.01571854 Ry
     Harris-Foulkes estimate   =     -17.01572181 Ry
     estimated scf accuracy    <       0.00000567 Ry

     iteration #  6     ecut=    30.00 Ry     beta=0.50
     Davidson diagonalization with overlap
     ethr =  7.09E-08,  avg # of iterations =  2.1

     total cpu time spent up to now is        1.4 secs

     total energy              =     -17.01571937 Ry
     Harris-Foulkes estimate   =     -17.01572066 Ry
     estimated scf accuracy    <       0.00000282 Ry

     iteration #  7     ecut=    30.00 Ry     beta=0.50
     Davidson diagonalization with overlap
     ethr =  3.52E-08,  avg # of iterations =  2.0

     total cpu time spent up to now is        1.6 secs

     total energy              =     -17.01571965 Ry
     Harris-Foulkes estimate   =     -17.01571969 Ry
     estimated scf accuracy    <       0.00000008 Ry

     iteration #  8     ecut=    30.00 Ry     beta=0.50
     Davidson diagonalization with overlap
     ethr =  9.48E-10,  avg # of iterations =  3.0

     total cpu time spent up to now is        1.8 secs

     total energy              =     -17.01571969 Ry
     Harris-Foulkes estimate   =     -17.01571969 Ry
     estimated scf accuracy    <          7.1E-09 Ry

     iteration #  9     ecut=    30.00 Ry     beta=0.50
     Davidson diagonalization with overlap
     ethr =  8.92E-11,  avg # of iterations =  1.8

     total cpu time spent up to now is        2.0 secs

     total energy              =     -17.01571969 Ry
     Harris-Foulkes estimate   =     -17.01571969 Ry
     estimated scf accuracy    <          8.7E-10 Ry

     iteration # 10     ecut=    30.00 Ry     beta=0.50
     Davidson diagonalization with overlap
     ethr =  1.09E-11,  avg # of iterations =  3.0

     total cpu time spent up to now is        2.2 secs

     total energy              =     -17.01571969 Ry
     Harris-Foulkes estimate   =     -17.01571969 Ry
     estimated scf accuracy    <          3.6E-10 Ry

     iteration # 11     ecut=    30.00 Ry     beta=0.50
     Davidson diagonalization with overlap
     ethr =  4.52E-12,  avg # of iterations =  2.0

     total cpu time spent up to now is        2.4 secs

     End of self-consistent calculation

          k =-0.1250 0.1250 0.1250 (   815 PWs)   bands (ev):

    -6.8548   3.7021   4.9567   4.9567

          k =-0.3750 0.3750-0.1250 (   804 PWs)   bands (ev):

    -6.0828   1.0483   3.3927   4.6323

          k = 0.3750-0.3750 0.6250 (   805 PWs)   bands (ev):

    -5.4220  -0.4754   3.3768   4.0030

          k = 0.1250-0.1250 0.3750 (   810 PWs)   bands (ev):

    -6.4429   2.2055   4.2078   4.2582

          k =-0.1250 0.6250 0.1250 (   811 PWs)   bands (ev):

    -5.7175   0.8015   3.0802   3.4540

          k = 0.6250-0.1250 0.8750 (   800 PWs)   bands (ev):

    -4.9716  -0.1256   1.7398   2.8169

          k = 0.3750 0.1250 0.6250 (   800 PWs)   bands (ev):

    -5.4856   0.1993   2.4716   3.7167

          k =-0.1250-0.8750 0.1250 (   792 PWs)   bands (ev):

    -5.0072  -0.2315   2.3677   3.0299

          k =-0.3750 0.3750 0.3750 (   808 PWs)   bands (ev):

    -5.8098   0.0052   4.3816   4.3816

          k = 0.3750-0.3750 1.1250 (   798 PWs)   bands (ev):

    -5.1697  -0.1676   1.8190   3.7370

!    total energy              =     -17.01571969 Ry
     Harris-Foulkes estimate   =     -17.01571969 Ry
     estimated scf accuracy    <          5.0E-12 Ry

     The total energy is the sum of the following terms:

     one-electron contribution =       3.40442513 Ry
     hartree contribution      =       1.54976492 Ry
     xc contribution           =      -4.83244401 Ry
     ewald contribution        =     -17.13746573 Ry

     convergence has been achieved in  11 iterations

     Forces acting on atoms (Ry/au):

     atom    1 type  1   force =     0.00000000    0.00000000    0.00000000
     atom    2 type  2   force =     0.00000000    0.00000000    0.00000000

     Total force =     0.000000     Total SCF correction =     0.000000


     entering subroutine stress ...

          total   stress  (Ry/bohr**3)                   (kbar)     P=   16.66
   0.00011327   0.00000000   0.00000000         16.66      0.00      0.00
   0.00000000   0.00011327   0.00000000          0.00     16.66      0.00
   0.00000000   0.00000000   0.00011327          0.00      0.00     16.66


     Writing output data file alas.save
 
     init_run     :      0.14s CPU      0.16s WALL (       1 calls)
     electrons    :      2.06s CPU      2.19s WALL (       1 calls)
     forces       :      0.01s CPU      0.01s WALL (       1 calls)
     stress       :      0.06s CPU      0.06s WALL (       1 calls)

     Called by init_run:
     wfcinit      :      0.08s CPU      0.09s WALL (       1 calls)
     potinit      :      0.00s CPU      0.01s WALL (       1 calls)

     Called by electrons:
     c_bands      :      1.64s CPU      1.75s WALL (      12 calls)
     sum_band     :      0.32s CPU      0.33s WALL (      12 calls)
     v_of_rho     :      0.04s CPU      0.03s WALL (      12 calls)
     mix_rho      :      0.03s CPU      0.04s WALL (      12 calls)

     Called by c_bands:
     init_us_2    :      0.08s CPU      0.08s WALL (     270 calls)
     cegterg      :      1.56s CPU      1.62s WALL (     120 calls)

     Called by *egterg:
     h_psi        :      1.42s CPU      1.49s WALL (     398 calls)
     g_psi        :      0.02s CPU      0.02s WALL (     268 calls)
     cdiaghg      :      0.04s CPU      0.05s WALL (     378 calls)

     Called by h_psi:
     add_vuspsi   :      0.02s CPU      0.02s WALL (     398 calls)

     General routines
     calbec       :      0.04s CPU      0.04s WALL (     418 calls)
     fft          :      0.03s CPU      0.04s WALL (      54 calls)
     fftw         :      1.46s CPU      1.50s WALL (    3322 calls)
     davcio       :      0.04s CPU      0.07s WALL (     390 calls)
 
 
     PWSCF        :     2.36s CPU         2.54s WALL

 
   This run was terminated on:   3:20:17  23Jun2014            

=------------------------------------------------------------------------------=
   JOB DONE.
=------------------------------------------------------------------------------=
