
     Program PWSCF v.4.3.2      starts on 23Jun2014 at  3:20:11 

     This program is part of the open-source Quantum ESPRESSO suite
     for quantum simulation of materials; please cite
         "P. Giannozzi et al., J. Phys.:Condens. Matter 21 395502 (2009);
          URL http://www.quantum-espresso.org", 
     in publications or presentations arising from this work. More details at
     http://www.quantum-espresso.org/wiki/index.php/Citing_Quantum-ESPRESSO

     Current dimensions of program PWSCF are:
     Max number of different atomic species (ntypx) = 10
     Max number of k-points (npk) =  40000
     Max angular momentum in pseudopotentials (lmaxx) =  3
     Waiting for input...
     Reading input from stdin
Warning: card   &IONS ignored
Warning: card   / ignored
Warning: card   &CELL ignored
Warning: card   / ignored
 
     G-vector sticks info
     --------------------
     sticks:   dense  smooth     PW     G-vecs:    dense   smooth      PW
     Sum         223     223     85                 2229     2229     531
 


     bravais-lattice index     =            2
     lattice parameter (alat)  =      10.5000  a.u.
     unit-cell volume          =     289.4062 (a.u.)^3
     number of atoms/cell      =            2
     number of atomic types    =            2
     number of electrons       =         8.00
     number of Kohn-Sham states=            4
     kinetic-energy cutoff     =      15.0000  Ry
     charge density cutoff     =      60.0000  Ry
     convergence threshold     =      1.0E-10
     mixing beta               =       0.5000
     number of iterations used =            8  plain     mixing
     Exchange-correlation      =  SLA  PZ   NOGX NOGC ( 1 1 0 0 0)
     EXX-fraction              =        0.00

     celldm(1)=  10.500000  celldm(2)=   0.000000  celldm(3)=   0.000000
     celldm(4)=   0.000000  celldm(5)=   0.000000  celldm(6)=   0.000000

     crystal axes: (cart. coord. in units of alat)
               a(1) = (  -0.500000   0.000000   0.500000 )  
               a(2) = (   0.000000   0.500000   0.500000 )  
               a(3) = (  -0.500000   0.500000   0.000000 )  

     reciprocal axes: (cart. coord. in units 2 pi/alat)
               b(1) = ( -1.000000 -1.000000  1.000000 )  
               b(2) = (  1.000000  1.000000  1.000000 )  
               b(3) = ( -1.000000  1.000000 -1.000000 )  


     PseudoPot. # 1 for Al read from file:
     ../../pseudo/Al.pz-vbc.UPF
     MD5 check sum: 614279c88ff8d45c90147292d03ed420
     Pseudo is Norm-conserving, Zval =  3.0
     Generated by new atomic code, or converted to UPF format
     Using radial grid of  171 points,  2 beta functions with: 
                l(1) =   0
                l(2) =   1

     PseudoPot. # 2 for As read from file:
     ../../pseudo/As.pz-bhs.UPF
     MD5 check sum: 451cd3365afcfc94d28b1934951c34a8
     Pseudo is Norm-conserving, Zval =  5.0
     Generated by new atomic code, or converted to UPF format
     Using radial grid of  525 points,  2 beta functions with: 
                l(1) =   0
                l(2) =   1

     atomic species   valence    mass     pseudopotential
        Al             3.00    26.98000     Al( 1.00)
        As             5.00    74.92000     As( 1.00)

     24 Sym.Ops. (no inversion)


   Cartesian axes

     site n.     atom                  positions (alat units)
         1           Al  tau(   1) = (   0.0000000   0.0000000   0.0000000  )
         2           As  tau(   2) = (   0.2500000   0.2500000   0.2500000  )

     number of k points=    10
                       cart. coord. in units 2pi/alat
        k(    1) = (  -0.1250000   0.1250000   0.1250000), wk =   0.0625000
        k(    2) = (  -0.3750000   0.3750000  -0.1250000), wk =   0.1875000
        k(    3) = (   0.3750000  -0.3750000   0.6250000), wk =   0.1875000
        k(    4) = (   0.1250000  -0.1250000   0.3750000), wk =   0.1875000
        k(    5) = (  -0.1250000   0.6250000   0.1250000), wk =   0.1875000
        k(    6) = (   0.6250000  -0.1250000   0.8750000), wk =   0.3750000
        k(    7) = (   0.3750000   0.1250000   0.6250000), wk =   0.3750000
        k(    8) = (  -0.1250000  -0.8750000   0.1250000), wk =   0.1875000
        k(    9) = (  -0.3750000   0.3750000   0.3750000), wk =   0.0625000
        k(   10) = (   0.3750000  -0.3750000   1.1250000), wk =   0.1875000

     Dense  grid:     2229 G-vectors     FFT dimensions: (  20,  20,  20)

     Largest allocated arrays     est. size (Mb)     dimensions
        Kohn-Sham Wavefunctions         0.02 Mb     (    293,    4)
        NL pseudopotentials             0.04 Mb     (    293,    8)
        Each V/rho on FFT grid          0.12 Mb     (   8000)
        Each G-vector array             0.02 Mb     (   2229)
        G-vector shells                 0.00 Mb     (     57)
     Largest temporary arrays     est. size (Mb)     dimensions
        Auxiliary wavefunctions         0.07 Mb     (    293,   16)
        Each subspace H/S matrix        0.00 Mb     (  16,  16)
        Each <psi_i|beta_j> matrix      0.00 Mb     (      8,    4)
        Arrays for rho mixing           0.98 Mb     (   8000,   8)

     Initial potential from superposition of free atoms

     starting charge    7.99774, renormalised to    8.00000
     Starting wfc are    8 atomic wfcs

     total cpu time spent up to now is        0.1 secs

     per-process dynamical memory:     1.8 Mb

     Self-consistent Calculation

     iteration #  1     ecut=    15.00 Ry     beta=0.50
     Davidson diagonalization with overlap
     ethr =  1.00E-02,  avg # of iterations =  2.0

     Threshold (ethr) on eigenvalues was too large:
     Diagonalizing with lowered threshold

     Davidson diagonalization with overlap
     ethr =  8.34E-04,  avg # of iterations =  1.7

     total cpu time spent up to now is        0.2 secs

     total energy              =     -16.98521917 Ry
     Harris-Foulkes estimate   =     -17.00889918 Ry
     estimated scf accuracy    <       0.06732826 Ry

     iteration #  2     ecut=    15.00 Ry     beta=0.50
     Davidson diagonalization with overlap
     ethr =  8.42E-04,  avg # of iterations =  1.2

     total cpu time spent up to now is        0.3 secs

     total energy              =     -16.98910444 Ry
     Harris-Foulkes estimate   =     -16.99045273 Ry
     estimated scf accuracy    <       0.00742195 Ry

     iteration #  3     ecut=    15.00 Ry     beta=0.50
     Davidson diagonalization with overlap
     ethr =  9.28E-05,  avg # of iterations =  2.8

     total cpu time spent up to now is        0.4 secs

     total energy              =     -16.99030954 Ry
     Harris-Foulkes estimate   =     -16.99070387 Ry
     estimated scf accuracy    <       0.00105696 Ry

     iteration #  4     ecut=    15.00 Ry     beta=0.50
     Davidson diagonalization with overlap
     ethr =  1.32E-05,  avg # of iterations =  2.8

     total cpu time spent up to now is        0.5 secs

     total energy              =     -16.99044839 Ry
     Harris-Foulkes estimate   =     -16.99066359 Ry
     estimated scf accuracy    <       0.00050504 Ry

     iteration #  5     ecut=    15.00 Ry     beta=0.50
     Davidson diagonalization with overlap
     ethr =  6.31E-06,  avg # of iterations =  1.4

     total cpu time spent up to now is        0.5 secs

     total energy              =     -16.99044708 Ry
     Harris-Foulkes estimate   =     -16.99048730 Ry
     estimated scf accuracy    <       0.00007155 Ry

     iteration #  6     ecut=    15.00 Ry     beta=0.50
     Davidson diagonalization with overlap
     ethr =  8.94E-07,  avg # of iterations =  3.0

     total cpu time spent up to now is        0.6 secs

     total energy              =     -16.99047321 Ry
     Harris-Foulkes estimate   =     -16.99047400 Ry
     estimated scf accuracy    <       0.00000270 Ry

     iteration #  7     ecut=    15.00 Ry     beta=0.50
     Davidson diagonalization with overlap
     ethr =  3.37E-08,  avg # of iterations =  2.0

     total cpu time spent up to now is        0.7 secs

     total energy              =     -16.99047329 Ry
     Harris-Foulkes estimate   =     -16.99047355 Ry
     estimated scf accuracy    <       0.00000078 Ry

     iteration #  8     ecut=    15.00 Ry     beta=0.50
     Davidson diagonalization with overlap
     ethr =  9.81E-09,  avg # of iterations =  1.1

     total cpu time spent up to now is        0.7 secs

     total energy              =     -16.99047326 Ry
     Harris-Foulkes estimate   =     -16.99047335 Ry
     estimated scf accuracy    <       0.00000018 Ry

     iteration #  9     ecut=    15.00 Ry     beta=0.50
     Davidson diagonalization with overlap
     ethr =  2.27E-09,  avg # of iterations =  3.0

     total cpu time spent up to now is        0.8 secs

     End of self-consistent calculation

          k =-0.1250 0.1250 0.1250 (   289 PWs)   bands (ev):

    -6.8404   3.7304   4.9865   4.9865

          k =-0.3750 0.3750-0.1250 (   290 PWs)   bands (ev):

    -6.0667   1.0764   3.4184   4.6596

          k = 0.3750-0.3750 0.6250 (   280 PWs)   bands (ev):

    -5.3942  -0.4474   3.4051   4.0333

          k = 0.1250-0.1250 0.3750 (   293 PWs)   bands (ev):

    -6.4298   2.2324   4.2313   4.2859

          k =-0.1250 0.6250 0.1250 (   287 PWs)   bands (ev):

    -5.6972   0.8340   3.1058   3.4799

          k = 0.6250-0.1250 0.8750 (   282 PWs)   bands (ev):

    -4.9437  -0.1037   1.7691   2.8434

          k = 0.3750 0.1250 0.6250 (   283 PWs)   bands (ev):

    -5.4622   0.2283   2.4983   3.7455

          k =-0.1250-0.8750 0.1250 (   282 PWs)   bands (ev):

    -4.9783  -0.2074   2.3966   3.0589

          k =-0.3750 0.3750 0.3750 (   281 PWs)   bands (ev):

    -5.7851   0.0349   4.4101   4.4101

          k = 0.3750-0.3750 1.1250 (   280 PWs)   bands (ev):

    -5.1425  -0.1424   1.8465   3.7662

!    total energy              =     -16.99047332 Ry
     Harris-Foulkes estimate   =     -16.99047332 Ry
     estimated scf accuracy    <          5.9E-11 Ry

     The total energy is the sum of the following terms:

     one-electron contribution =       3.43598257 Ry
     hartree contribution      =       1.53845064 Ry
     xc contribution           =      -4.82744057 Ry
     ewald contribution        =     -17.13746596 Ry

     convergence has been achieved in   9 iterations

     Forces acting on atoms (Ry/au):

     atom    1 type  1   force =     0.00000000    0.00000000    0.00000000
     atom    2 type  2   force =     0.00000000    0.00000000    0.00000000

     Total force =     0.000000     Total SCF correction =     0.000000


     entering subroutine stress ...

          total   stress  (Ry/bohr**3)                   (kbar)     P=  -17.06
  -0.00011596   0.00000000   0.00000000        -17.06      0.00      0.00
   0.00000000  -0.00011596   0.00000000          0.00    -17.06      0.00
   0.00000000   0.00000000  -0.00011596          0.00      0.00    -17.06


     Writing output data file alas.save
 
     init_run     :      0.09s CPU      0.09s WALL (       1 calls)
     electrons    :      0.65s CPU      0.66s WALL (       1 calls)
     forces       :      0.00s CPU      0.00s WALL (       1 calls)
     stress       :      0.02s CPU      0.02s WALL (       1 calls)

     Called by init_run:
     wfcinit      :      0.04s CPU      0.04s WALL (       1 calls)
     potinit      :      0.00s CPU      0.00s WALL (       1 calls)

     Called by electrons:
     c_bands      :      0.52s CPU      0.52s WALL (      10 calls)
     sum_band     :      0.10s CPU      0.11s WALL (      10 calls)
     v_of_rho     :      0.00s CPU      0.01s WALL (      10 calls)
     mix_rho      :      0.01s CPU      0.01s WALL (      10 calls)

     Called by c_bands:
     init_us_2    :      0.02s CPU      0.02s WALL (     230 calls)
     cegterg      :      0.49s CPU      0.49s WALL (     100 calls)

     Called by *egterg:
     h_psi        :      0.48s CPU      0.47s WALL (     320 calls)
     g_psi        :      0.01s CPU      0.01s WALL (     210 calls)
     cdiaghg      :      0.01s CPU      0.02s WALL (     300 calls)

     Called by h_psi:
     add_vuspsi   :      0.00s CPU      0.01s WALL (     320 calls)

     General routines
     calbec       :      0.00s CPU      0.01s WALL (     340 calls)
     fft          :      0.02s CPU      0.01s WALL (      46 calls)
     fftw         :      0.49s CPU      0.48s WALL (    2648 calls)
     davcio       :      0.01s CPU      0.01s WALL (     330 calls)
 
 
     PWSCF        :     0.86s CPU         0.88s WALL

 
   This run was terminated on:   3:20:12  23Jun2014            

=------------------------------------------------------------------------------=
   JOB DONE.
=------------------------------------------------------------------------------=
