
     Program PWSCF v.4.3.2      starts on 23Jun2014 at  3:31:43 

     This program is part of the open-source Quantum ESPRESSO suite
     for quantum simulation of materials; please cite
         "P. Giannozzi et al., J. Phys.:Condens. Matter 21 395502 (2009);
          URL http://www.quantum-espresso.org", 
     in publications or presentations arising from this work. More details at
     http://www.quantum-espresso.org/wiki/index.php/Citing_Quantum-ESPRESSO

     Current dimensions of program PWSCF are:
     Max number of different atomic species (ntypx) = 10
     Max number of k-points (npk) =  40000
     Max angular momentum in pseudopotentials (lmaxx) =  3
     Waiting for input...
     Reading input from stdin
Warning: card   &IONS ignored
Warning: card   / ignored
Warning: card   &CELL ignored
Warning: card   / ignored
     Message from routine setup:
     no reason to have ecutrho>4*ecutwfc
 
     G-vector sticks info
     --------------------
     sticks:   dense  smooth     PW     G-vecs:    dense   smooth      PW
     Sum        1723     673    211                46679    11791    2085
 


     bravais-lattice index     =            2
     lattice parameter (alat)  =      10.5000  a.u.
     unit-cell volume          =     289.4062 (a.u.)^3
     number of atoms/cell      =            2
     number of atomic types    =            2
     number of electrons       =         8.00
     number of Kohn-Sham states=            8
     kinetic-energy cutoff     =      45.0000  Ry
     charge density cutoff     =     450.0000  Ry
     convergence threshold     =      1.0E-10
     mixing beta               =       0.5000
     number of iterations used =            8  plain     mixing
     Exchange-correlation      =  SLA  PZ   NOGX NOGC ( 1 1 0 0 0)
     EXX-fraction              =        0.00

     celldm(1)=  10.500000  celldm(2)=   0.000000  celldm(3)=   0.000000
     celldm(4)=   0.000000  celldm(5)=   0.000000  celldm(6)=   0.000000

     crystal axes: (cart. coord. in units of alat)
               a(1) = (  -0.500000   0.000000   0.500000 )  
               a(2) = (   0.000000   0.500000   0.500000 )  
               a(3) = (  -0.500000   0.500000   0.000000 )  

     reciprocal axes: (cart. coord. in units 2 pi/alat)
               b(1) = ( -1.000000 -1.000000  1.000000 )  
               b(2) = (  1.000000  1.000000  1.000000 )  
               b(3) = ( -1.000000  1.000000 -1.000000 )  


     PseudoPot. # 1 for Al read from file:
     ../../pseudo/Al.pz-vbc.UPF
     MD5 check sum: 614279c88ff8d45c90147292d03ed420
     Pseudo is Norm-conserving, Zval =  3.0
     Generated by new atomic code, or converted to UPF format
     Using radial grid of  171 points,  2 beta functions with: 
                l(1) =   0
                l(2) =   1

     PseudoPot. # 2 for As read from file:
     ../../pseudo/As.pz-bhs.UPF
     MD5 check sum: 451cd3365afcfc94d28b1934951c34a8
     Pseudo is Norm-conserving, Zval =  5.0
     Generated by new atomic code, or converted to UPF format
     Using radial grid of  525 points,  2 beta functions with: 
                l(1) =   0
                l(2) =   1

     atomic species   valence    mass     pseudopotential
        Al             3.00    26.98000     Al( 1.00)
        As             5.00    74.92000     As( 1.00)

     24 Sym.Ops. (no inversion)


   Cartesian axes

     site n.     atom                  positions (alat units)
         1           Al  tau(   1) = (   0.0000000   0.0000000   0.0000000  )
         2           As  tau(   2) = (   0.2500000   0.2500000   0.2500000  )

     number of k points=    19
                       cart. coord. in units 2pi/alat
        k(    1) = (  -0.1000000   0.1000000   0.1000000), wk =   0.0320000
        k(    2) = (  -0.3000000   0.3000000  -0.1000000), wk =   0.0960000
        k(    3) = (   0.5000000  -0.5000000   0.7000000), wk =   0.0960000
        k(    4) = (   0.3000000  -0.3000000   0.5000000), wk =   0.0960000
        k(    5) = (   0.1000000  -0.1000000   0.3000000), wk =   0.0960000
        k(    6) = (  -0.1000000   0.5000000   0.1000000), wk =   0.0960000
        k(    7) = (   0.7000000  -0.3000000   0.9000000), wk =   0.1920000
        k(    8) = (   0.5000000  -0.1000000   0.7000000), wk =   0.1920000
        k(    9) = (   0.3000000   0.1000000   0.5000000), wk =   0.1920000
        k(   10) = (  -0.1000000  -1.1000000   0.1000000), wk =   0.0960000
        k(   11) = (  -0.3000000  -0.9000000  -0.1000000), wk =   0.1920000
        k(   12) = (  -0.5000000  -0.7000000  -0.3000000), wk =   0.0960000
        k(   13) = (  -0.1000000  -0.7000000   0.1000000), wk =   0.0960000
        k(   14) = (  -0.3000000   0.3000000   0.3000000), wk =   0.0320000
        k(   15) = (   0.5000000  -0.5000000   1.1000000), wk =   0.0960000
        k(   16) = (   0.3000000  -0.3000000   0.9000000), wk =   0.0960000
        k(   17) = (  -0.3000000  -1.3000000   0.3000000), wk =   0.0960000
        k(   18) = (  -0.5000000  -1.1000000   0.1000000), wk =   0.0960000
        k(   19) = (   0.5000000  -0.5000000  -0.5000000), wk =   0.0160000

     Dense  grid:    46679 G-vectors     FFT dimensions: (  54,  54,  54)

     Smooth grid:    11791 G-vectors     FFT dimensions: (  32,  32,  32)

     Largest allocated arrays     est. size (Mb)     dimensions
        Kohn-Sham Wavefunctions         0.18 Mb     (   1488,    8)
        NL pseudopotentials             0.18 Mb     (   1488,    8)
        Each V/rho on FFT grid          2.40 Mb     ( 157464)
        Each G-vector array             0.36 Mb     (  46679)
        G-vector shells                 0.00 Mb     (    422)
     Largest temporary arrays     est. size (Mb)     dimensions
        Auxiliary wavefunctions         0.73 Mb     (   1488,   32)
        Each subspace H/S matrix        0.02 Mb     (  32,  32)
        Each <psi_i|beta_j> matrix      0.00 Mb     (      8,    8)
        Arrays for rho mixing          19.22 Mb     ( 157464,   8)

     Initial potential from superposition of free atoms

     starting charge    7.99774, renormalised to    8.00000

     negative rho (up, down):  0.262E-04 0.000E+00
     Starting wfc are    8 atomic wfcs

     total cpu time spent up to now is        0.6 secs

     per-process dynamical memory:    25.5 Mb

     Self-consistent Calculation

     iteration #  1     ecut=    45.00 Ry     beta=0.50
     Davidson diagonalization with overlap
     ethr =  1.00E-02,  avg # of iterations =  4.1

     Threshold (ethr) on eigenvalues was too large:
     Diagonalizing with lowered threshold

     Davidson diagonalization with overlap
     ethr =  9.02E-04,  avg # of iterations =  1.0

     negative rho (up, down):  0.128E-04 0.000E+00

     total cpu time spent up to now is        3.5 secs

     total energy              =     -17.00997472 Ry
     Harris-Foulkes estimate   =     -17.02839075 Ry
     estimated scf accuracy    <       0.07220640 Ry

     iteration #  2     ecut=    45.00 Ry     beta=0.50
     Davidson diagonalization with overlap
     ethr =  9.03E-04,  avg # of iterations =  1.0

     negative rho (up, down):  0.760E-05 0.000E+00

     total cpu time spent up to now is        4.7 secs

     total energy              =     -17.01803026 Ry
     Harris-Foulkes estimate   =     -17.01675738 Ry
     estimated scf accuracy    <       0.00659152 Ry

     iteration #  3     ecut=    45.00 Ry     beta=0.50
     Davidson diagonalization with overlap
     ethr =  8.24E-05,  avg # of iterations =  1.8

     negative rho (up, down):  0.147E-04 0.000E+00

     total cpu time spent up to now is        5.9 secs

     total energy              =     -17.01893370 Ry
     Harris-Foulkes estimate   =     -17.01844789 Ry
     estimated scf accuracy    <       0.00080838 Ry

     iteration #  4     ecut=    45.00 Ry     beta=0.50
     Davidson diagonalization with overlap
     ethr =  1.01E-05,  avg # of iterations =  2.7

     negative rho (up, down):  0.321E-05 0.000E+00

     total cpu time spent up to now is        7.1 secs

     total energy              =     -17.01915109 Ry
     Harris-Foulkes estimate   =     -17.01902008 Ry
     estimated scf accuracy    <       0.00001875 Ry

     iteration #  5     ecut=    45.00 Ry     beta=0.50
     Davidson diagonalization with overlap
     ethr =  2.34E-07,  avg # of iterations =  2.2

     negative rho (up, down):  0.106E-05 0.000E+00

     total cpu time spent up to now is        8.5 secs

     total energy              =     -17.01918899 Ry
     Harris-Foulkes estimate   =     -17.01915677 Ry
     estimated scf accuracy    <       0.00000619 Ry

     iteration #  6     ecut=    45.00 Ry     beta=0.50
     Davidson diagonalization with overlap
     ethr =  7.73E-08,  avg # of iterations =  1.2

     negative rho (up, down):  0.210E-06 0.000E+00

     total cpu time spent up to now is        9.6 secs

     total energy              =     -17.01919856 Ry
     Harris-Foulkes estimate   =     -17.01918978 Ry
     estimated scf accuracy    <       0.00000001 Ry

     iteration #  7     ecut=    45.00 Ry     beta=0.50
     Davidson diagonalization with overlap
     ethr =  1.72E-10,  avg # of iterations =  3.2

     total cpu time spent up to now is       11.1 secs

     total energy              =     -17.01920081 Ry
     Harris-Foulkes estimate   =     -17.01919861 Ry
     estimated scf accuracy    <       0.00000002 Ry

     iteration #  8     ecut=    45.00 Ry     beta=0.50
     Davidson diagonalization with overlap
     ethr =  1.72E-10,  avg # of iterations =  2.0

     total cpu time spent up to now is       12.3 secs

     total energy              =     -17.01920137 Ry
     Harris-Foulkes estimate   =     -17.01920081 Ry
     estimated scf accuracy    <          6.9E-10 Ry

     iteration #  9     ecut=    45.00 Ry     beta=0.50
     Davidson diagonalization with overlap
     ethr =  8.60E-12,  avg # of iterations =  2.1

     total cpu time spent up to now is       13.6 secs

     total energy              =     -17.01920151 Ry
     Harris-Foulkes estimate   =     -17.01920137 Ry
     estimated scf accuracy    <          1.2E-10 Ry

     iteration # 10     ecut=    45.00 Ry     beta=0.50
     Davidson diagonalization with overlap
     ethr =  1.50E-12,  avg # of iterations =  1.9

     total cpu time spent up to now is       14.7 secs

     End of self-consistent calculation

          k =-0.1000 0.1000 0.1000 (  1459 PWs)   bands (ev):

    -6.9237   4.1027   5.0115   5.0115   8.2710   9.7157   9.7157   9.7620

          k =-0.3000 0.3000-0.1000 (  1469 PWs)   bands (ev):

    -6.4039   1.8600   3.8639   4.8239   8.6869  10.0724  10.0790  11.3650

          k = 0.5000-0.5000 0.7000 (  1475 PWs)   bands (ev):

    -5.5350  -0.3974   3.5331   4.2608   8.1513   9.7105  10.1385  13.2686

          k = 0.3000-0.3000 0.5000 (  1472 PWs)   bands (ev):

    -5.7851   0.1423   3.8928   4.0727   8.1997   9.6677  10.5342  12.2405

          k = 0.1000-0.1000 0.3000 (  1463 PWs)   bands (ev):

    -6.6543   2.8799   4.4499   4.5591   8.7490   9.3301  10.5905  10.7622

          k =-0.1000 0.5000 0.1000 (  1469 PWs)   bands (ev):

    -6.1499   1.6158   3.6574   3.7773   8.0150   9.2875  11.3152  11.8650

          k = 0.7000-0.3000 0.9000 (  1473 PWs)   bands (ev):

    -5.3857   0.2135   2.3825   3.2966   8.2038   9.7804  10.9581  13.0786

          k = 0.5000-0.1000 0.7000 (  1488 PWs)   bands (ev):

    -5.1986  -0.0626   1.8277   3.4604   8.6870  10.1704  11.8777  12.7813

          k = 0.3000 0.1000 0.5000 (  1473 PWs)   bands (ev):

    -5.9444   0.9161   3.0835   4.1895   8.8478   9.7596  10.6974  11.4214

          k =-0.1000-1.1000 0.1000 (  1483 PWs)   bands (ev):

    -4.9852  -0.3144   2.5060   2.9749   6.7771   7.8977  14.6846  14.7491

          k =-0.3000-0.9000-0.1000 (  1478 PWs)   bands (ev):

    -4.9595  -0.1853   1.8881   2.7877   7.7771   9.4240  12.3614  14.1149

          k =-0.5000-0.7000-0.3000 (  1482 PWs)   bands (ev):

    -5.3116  -0.4423   2.7648   3.7909   8.7020   9.3375  11.2095  13.2521

          k =-0.1000-0.7000 0.1000 (  1475 PWs)   bands (ev):

    -5.5096   0.4706   2.9082   3.2532   7.2430   8.3714  12.9552  13.2980

          k =-0.3000 0.3000 0.3000 (  1459 PWs)   bands (ev):

    -6.1804   0.9128   4.5191   4.5191   7.8347  10.0975  10.0975  12.4999

          k = 0.5000-0.5000 1.1000 (  1477 PWs)   bands (ev):

    -5.5875   0.2693   2.3572   4.2154   8.6091  10.4871  10.9255  12.2413

          k = 0.3000-0.3000 0.9000 (  1488 PWs)   bands (ev):

    -5.0387  -0.1695   1.5718   3.4528   7.5745  11.0316  12.5902  12.5916

          k =-0.3000-1.3000 0.3000 (  1474 PWs)   bands (ev):

    -5.3406  -0.2241   2.6190   3.6767   7.9800  10.4761  11.4199  11.7819

          k =-0.5000-1.1000 0.1000 (  1478 PWs)   bands (ev):

    -4.9434  -0.0924   1.6357   2.5718   9.2088  10.3006  11.4519  12.0293

          k = 0.5000-0.5000-0.5000 (  1476 PWs)   bands (ev):

    -5.5011  -0.6825   4.2899   4.2899   7.4884   9.8212   9.8212  12.8958

     highest occupied, lowest unoccupied level (ev):     5.0115    6.7771

!    total energy              =     -17.01920156 Ry
     Harris-Foulkes estimate   =     -17.01920151 Ry
     estimated scf accuracy    <          1.0E-12 Ry

     The total energy is the sum of the following terms:

     one-electron contribution =       3.40042744 Ry
     hartree contribution      =       1.55034424 Ry
     xc contribution           =      -4.83250757 Ry
     ewald contribution        =     -17.13746568 Ry

     convergence has been achieved in  10 iterations

     Forces acting on atoms (Ry/au):

     atom    1 type  1   force =     0.00000000    0.00000000    0.00000000
     atom    2 type  2   force =     0.00000000    0.00000000    0.00000000

     Total force =     0.000000     Total SCF correction =     0.000000


     entering subroutine stress ...

          total   stress  (Ry/bohr**3)                   (kbar)     P=   20.53
   0.00013954   0.00000000   0.00000000         20.53      0.00      0.00
   0.00000000   0.00013954   0.00000000          0.00     20.53      0.00
   0.00000000   0.00000000   0.00013954          0.00      0.00     20.53


     Writing output data file alas.save
 
     init_run     :      0.55s CPU      0.61s WALL (       1 calls)
     electrons    :     13.73s CPU     14.05s WALL (       1 calls)
     forces       :      0.07s CPU      0.07s WALL (       1 calls)
     stress       :      0.29s CPU      0.32s WALL (       1 calls)

     Called by init_run:
     wfcinit      :      0.34s CPU      0.37s WALL (       1 calls)
     potinit      :      0.07s CPU      0.09s WALL (       1 calls)

     Called by electrons:
     c_bands      :      9.72s CPU      9.92s WALL (      11 calls)
     sum_band     :      3.13s CPU      3.21s WALL (      11 calls)
     v_of_rho     :      0.32s CPU      0.34s WALL (      11 calls)
     mix_rho      :      0.27s CPU      0.27s WALL (      11 calls)

     Called by c_bands:
     init_us_2    :      0.28s CPU      0.26s WALL (     475 calls)
     cegterg      :      9.46s CPU      9.67s WALL (     209 calls)

     Called by *egterg:
     h_psi        :      8.65s CPU      8.94s WALL (     666 calls)
     g_psi        :      0.11s CPU      0.11s WALL (     438 calls)
     cdiaghg      :      0.18s CPU      0.16s WALL (     628 calls)

     Called by h_psi:
     add_vuspsi   :      0.08s CPU      0.10s WALL (     666 calls)

     General routines
     calbec       :      0.10s CPU      0.13s WALL (     704 calls)
     fft          :      0.79s CPU      0.78s WALL (      81 calls)
     ffts         :      0.02s CPU      0.02s WALL (      22 calls)
     fftw         :      5.74s CPU      5.75s WALL (    9978 calls)
     interpolate  :      0.28s CPU      0.28s WALL (      22 calls)
     davcio       :      0.07s CPU      0.09s WALL (     684 calls)
 
 
     PWSCF        :    14.76s CPU        15.20s WALL

 
   This run was terminated on:   3:31:58  23Jun2014            

=------------------------------------------------------------------------------=
   JOB DONE.
=------------------------------------------------------------------------------=
