
     Program PWSCF v.4.3.2      starts on 23Jun2014 at  3:32:20 

     This program is part of the open-source Quantum ESPRESSO suite
     for quantum simulation of materials; please cite
         "P. Giannozzi et al., J. Phys.:Condens. Matter 21 395502 (2009);
          URL http://www.quantum-espresso.org", 
     in publications or presentations arising from this work. More details at
     http://www.quantum-espresso.org/wiki/index.php/Citing_Quantum-ESPRESSO

     Current dimensions of program PWSCF are:
     Max number of different atomic species (ntypx) = 10
     Max number of k-points (npk) =  40000
     Max angular momentum in pseudopotentials (lmaxx) =  3
     Waiting for input...
     Reading input from stdin
Warning: card   &IONS ignored
Warning: card   / ignored
Warning: card   &CELL ignored
Warning: card   / ignored
     Message from routine setup:
     no reason to have ecutrho>4*ecutwfc
 
     G-vector sticks info
     --------------------
     sticks:   dense  smooth     PW     G-vecs:    dense   smooth      PW
     Sum        1723     673    211                46679    11791    2109
 


     bravais-lattice index     =            2
     lattice parameter (alat)  =      10.5000  a.u.
     unit-cell volume          =     289.4062 (a.u.)^3
     number of atoms/cell      =            2
     number of atomic types    =            2
     number of electrons       =         8.00
     number of Kohn-Sham states=            8
     kinetic-energy cutoff     =      45.0000  Ry
     charge density cutoff     =     450.0000  Ry
     convergence threshold     =      1.0E-10
     mixing beta               =       0.5000
     number of iterations used =            8  plain     mixing
     Exchange-correlation      =  SLA  PZ   NOGX NOGC ( 1 1 0 0 0)
     EXX-fraction              =        0.00

     celldm(1)=  10.500000  celldm(2)=   0.000000  celldm(3)=   0.000000
     celldm(4)=   0.000000  celldm(5)=   0.000000  celldm(6)=   0.000000

     crystal axes: (cart. coord. in units of alat)
               a(1) = (  -0.500000   0.000000   0.500000 )  
               a(2) = (   0.000000   0.500000   0.500000 )  
               a(3) = (  -0.500000   0.500000   0.000000 )  

     reciprocal axes: (cart. coord. in units 2 pi/alat)
               b(1) = ( -1.000000 -1.000000  1.000000 )  
               b(2) = (  1.000000  1.000000  1.000000 )  
               b(3) = ( -1.000000  1.000000 -1.000000 )  


     PseudoPot. # 1 for Al read from file:
     ../../pseudo/Al.pz-vbc.UPF
     MD5 check sum: 614279c88ff8d45c90147292d03ed420
     Pseudo is Norm-conserving, Zval =  3.0
     Generated by new atomic code, or converted to UPF format
     Using radial grid of  171 points,  2 beta functions with: 
                l(1) =   0
                l(2) =   1

     PseudoPot. # 2 for As read from file:
     ../../pseudo/As.pz-bhs.UPF
     MD5 check sum: 451cd3365afcfc94d28b1934951c34a8
     Pseudo is Norm-conserving, Zval =  5.0
     Generated by new atomic code, or converted to UPF format
     Using radial grid of  525 points,  2 beta functions with: 
                l(1) =   0
                l(2) =   1

     atomic species   valence    mass     pseudopotential
        Al             3.00    26.98000     Al( 1.00)
        As             5.00    74.92000     As( 1.00)

     24 Sym.Ops. (no inversion)


   Cartesian axes

     site n.     atom                  positions (alat units)
         1           Al  tau(   1) = (   0.0000000   0.0000000   0.0000000  )
         2           As  tau(   2) = (   0.2500000   0.2500000   0.2500000  )

     number of k points=    44
                       cart. coord. in units 2pi/alat
        k(    1) = (  -0.0714286   0.0714286   0.0714286), wk =   0.0116618
        k(    2) = (  -0.2142857   0.2142857  -0.0714286), wk =   0.0349854
        k(    3) = (  -0.3571429   0.3571429  -0.2142857), wk =   0.0349854
        k(    4) = (   0.5000000  -0.5000000   0.6428571), wk =   0.0349854
        k(    5) = (   0.3571429  -0.3571429   0.5000000), wk =   0.0349854
        k(    6) = (   0.2142857  -0.2142857   0.3571429), wk =   0.0349854
        k(    7) = (   0.0714286  -0.0714286   0.2142857), wk =   0.0349854
        k(    8) = (  -0.0714286   0.3571429   0.0714286), wk =   0.0349854
        k(    9) = (  -0.2142857   0.5000000  -0.0714286), wk =   0.0699708
        k(   10) = (   0.6428571  -0.3571429   0.7857143), wk =   0.0699708
        k(   11) = (   0.5000000  -0.2142857   0.6428571), wk =   0.0699708
        k(   12) = (   0.3571429  -0.0714286   0.5000000), wk =   0.0699708
        k(   13) = (   0.2142857   0.0714286   0.3571429), wk =   0.0699708
        k(   14) = (  -0.0714286   0.6428571   0.0714286), wk =   0.0349854
        k(   15) = (   0.7857143  -0.2142857   0.9285714), wk =   0.0699708
        k(   16) = (   0.6428571  -0.0714286   0.7857143), wk =   0.0699708
        k(   17) = (   0.5000000   0.0714286   0.6428571), wk =   0.0699708
        k(   18) = (   0.3571429   0.2142857   0.5000000), wk =   0.0699708
        k(   19) = (  -0.0714286  -1.0714286   0.0714286), wk =   0.0349854
        k(   20) = (  -0.2142857  -0.9285714  -0.0714286), wk =   0.0699708
        k(   21) = (  -0.3571429  -0.7857143  -0.2142857), wk =   0.0699708
        k(   22) = (  -0.5000000  -0.6428571  -0.3571429), wk =   0.0349854
        k(   23) = (  -0.0714286  -0.7857143   0.0714286), wk =   0.0349854
        k(   24) = (  -0.2142857  -0.6428571  -0.0714286), wk =   0.0699708
        k(   25) = (  -0.0714286  -0.5000000   0.0714286), wk =   0.0349854
        k(   26) = (  -0.2142857   0.2142857   0.2142857), wk =   0.0116618
        k(   27) = (  -0.3571429   0.3571429   0.0714286), wk =   0.0349854
        k(   28) = (   0.5000000  -0.5000000   0.9285714), wk =   0.0349854
        k(   29) = (   0.3571429  -0.3571429   0.7857143), wk =   0.0349854
        k(   30) = (   0.2142857  -0.2142857   0.6428571), wk =   0.0349854
        k(   31) = (  -0.2142857   0.5000000   0.2142857), wk =   0.0349854
        k(   32) = (   0.6428571  -0.3571429   1.0714286), wk =   0.0699708
        k(   33) = (   0.5000000  -0.2142857   0.9285714), wk =   0.0699708
        k(   34) = (   0.3571429  -0.0714286   0.7857143), wk =   0.0699708
        k(   35) = (  -0.2142857  -1.2142857   0.2142857), wk =   0.0349854
        k(   36) = (  -0.3571429  -1.0714286   0.0714286), wk =   0.0699708
        k(   37) = (  -0.5000000  -0.9285714  -0.0714286), wk =   0.0349854
        k(   38) = (  -0.2142857  -0.9285714   0.2142857), wk =   0.0349854
        k(   39) = (  -0.3571429   0.3571429   0.3571429), wk =   0.0116618
        k(   40) = (   0.5000000  -0.5000000   1.2142857), wk =   0.0349854
        k(   41) = (   0.3571429  -0.3571429   1.0714286), wk =   0.0349854
        k(   42) = (  -0.3571429  -1.3571429   0.3571429), wk =   0.0349854
        k(   43) = (  -0.5000000  -1.2142857   0.2142857), wk =   0.0349854
        k(   44) = (   0.5000000  -0.5000000  -0.5000000), wk =   0.0058309

     Dense  grid:    46679 G-vectors     FFT dimensions: (  54,  54,  54)

     Smooth grid:    11791 G-vectors     FFT dimensions: (  32,  32,  32)

     Largest allocated arrays     est. size (Mb)     dimensions
        Kohn-Sham Wavefunctions         0.18 Mb     (   1486,    8)
        NL pseudopotentials             0.18 Mb     (   1486,    8)
        Each V/rho on FFT grid          2.40 Mb     ( 157464)
        Each G-vector array             0.36 Mb     (  46679)
        G-vector shells                 0.00 Mb     (    422)
     Largest temporary arrays     est. size (Mb)     dimensions
        Auxiliary wavefunctions         0.73 Mb     (   1486,   32)
        Each subspace H/S matrix        0.02 Mb     (  32,  32)
        Each <psi_i|beta_j> matrix      0.00 Mb     (      8,    8)
        Arrays for rho mixing          19.22 Mb     ( 157464,   8)

     Initial potential from superposition of free atoms

     starting charge    7.99774, renormalised to    8.00000

     negative rho (up, down):  0.262E-04 0.000E+00
     Starting wfc are    8 atomic wfcs

     total cpu time spent up to now is        1.1 secs

     per-process dynamical memory:    25.5 Mb

     Self-consistent Calculation

     iteration #  1     ecut=    45.00 Ry     beta=0.50
     Davidson diagonalization with overlap
     ethr =  1.00E-02,  avg # of iterations =  4.2

     Threshold (ethr) on eigenvalues was too large:
     Diagonalizing with lowered threshold

     Davidson diagonalization with overlap
     ethr =  9.02E-04,  avg # of iterations =  1.0

     negative rho (up, down):  0.128E-04 0.000E+00

     total cpu time spent up to now is        7.5 secs

     total energy              =     -17.00998488 Ry
     Harris-Foulkes estimate   =     -17.02839621 Ry
     estimated scf accuracy    <       0.07219651 Ry

     iteration #  2     ecut=    45.00 Ry     beta=0.50
     Davidson diagonalization with overlap
     ethr =  9.02E-04,  avg # of iterations =  1.0

     negative rho (up, down):  0.759E-05 0.000E+00

     total cpu time spent up to now is       10.0 secs

     total energy              =     -17.01804439 Ry
     Harris-Foulkes estimate   =     -17.01677011 Ry
     estimated scf accuracy    <       0.00658638 Ry

     iteration #  3     ecut=    45.00 Ry     beta=0.50
     Davidson diagonalization with overlap
     ethr =  8.23E-05,  avg # of iterations =  1.6

     negative rho (up, down):  0.147E-04 0.000E+00

     total cpu time spent up to now is       12.5 secs

     total energy              =     -17.01894723 Ry
     Harris-Foulkes estimate   =     -17.01846141 Ry
     estimated scf accuracy    <       0.00080872 Ry

     iteration #  4     ecut=    45.00 Ry     beta=0.50
     Davidson diagonalization with overlap
     ethr =  1.01E-05,  avg # of iterations =  2.8

     negative rho (up, down):  0.322E-05 0.000E+00

     total cpu time spent up to now is       15.3 secs

     total energy              =     -17.01916449 Ry
     Harris-Foulkes estimate   =     -17.01903362 Ry
     estimated scf accuracy    <       0.00001908 Ry

     iteration #  5     ecut=    45.00 Ry     beta=0.50
     Davidson diagonalization with overlap
     ethr =  2.39E-07,  avg # of iterations =  2.5

     negative rho (up, down):  0.106E-05 0.000E+00

     total cpu time spent up to now is       18.3 secs

     total energy              =     -17.01920218 Ry
     Harris-Foulkes estimate   =     -17.01917033 Ry
     estimated scf accuracy    <       0.00000687 Ry

     iteration #  6     ecut=    45.00 Ry     beta=0.50
     Davidson diagonalization with overlap
     ethr =  8.59E-08,  avg # of iterations =  1.2

     negative rho (up, down):  0.209E-06 0.000E+00

     total cpu time spent up to now is       20.8 secs

     total energy              =     -17.01921184 Ry
     Harris-Foulkes estimate   =     -17.01920306 Ry
     estimated scf accuracy    <       0.00000001 Ry

     iteration #  7     ecut=    45.00 Ry     beta=0.50
     Davidson diagonalization with overlap
     ethr =  1.79E-10,  avg # of iterations =  3.1

     total cpu time spent up to now is       24.2 secs

     total energy              =     -17.01921409 Ry
     Harris-Foulkes estimate   =     -17.01921190 Ry
     estimated scf accuracy    <       0.00000002 Ry

     iteration #  8     ecut=    45.00 Ry     beta=0.50
     Davidson diagonalization with overlap
     ethr =  1.79E-10,  avg # of iterations =  2.0

     total cpu time spent up to now is       27.0 secs

     total energy              =     -17.01921466 Ry
     Harris-Foulkes estimate   =     -17.01921409 Ry
     estimated scf accuracy    <          8.2E-10 Ry

     iteration #  9     ecut=    45.00 Ry     beta=0.50
     Davidson diagonalization with overlap
     ethr =  1.02E-11,  avg # of iterations =  1.9

     total cpu time spent up to now is       29.6 secs

     total energy              =     -17.01921480 Ry
     Harris-Foulkes estimate   =     -17.01921466 Ry
     estimated scf accuracy    <          1.5E-10 Ry

     iteration # 10     ecut=    45.00 Ry     beta=0.50
     Davidson diagonalization with overlap
     ethr =  1.83E-12,  avg # of iterations =  1.9

     total cpu time spent up to now is       32.1 secs

     End of self-consistent calculation

          k =-0.0714 0.0714 0.0714 (  1456 PWs)   bands (ev):

    -6.9745   4.5300   5.0625   5.0625   8.1034   9.6001   9.6239   9.6239

          k =-0.2143 0.2143-0.0714 (  1459 PWs)   bands (ev):

    -6.6988   2.9213   4.3945   4.9794   8.6264   9.8055   9.8528  10.8368

          k =-0.3571 0.3571-0.2143 (  1467 PWs)   bands (ev):

    -6.0935   0.7990   3.9714   4.6021   8.1688  10.0658  10.1137  12.3218

          k = 0.5000-0.5000 0.6429 (  1475 PWs)   bands (ev):

    -5.5199  -0.5339   3.8597   4.2738   7.8820   9.7298   9.9856  13.1646

          k = 0.3571-0.3571 0.5000 (  1468 PWs)   bands (ev):

    -5.6634  -0.2371   4.0495   4.1674   7.9315   9.6700  10.2037  12.9224

          k = 0.2143-0.2143 0.3571 (  1469 PWs)   bands (ev):

    -6.3180   1.4634   4.3377   4.4540   8.3012   9.7998  10.5287  11.5316

          k = 0.0714-0.0714 0.2143 (  1450 PWs)   bands (ev):

    -6.8344   3.6870   4.7257   4.8304   8.6950   9.2146  10.1453  10.2698

          k =-0.0714 0.3571 0.0714 (  1470 PWs)   bands (ev):

    -6.5621   2.7141   4.2388   4.2724   8.5113   9.4797  10.8765  10.9897

          k =-0.2143 0.5000-0.0714 (  1469 PWs)   bands (ev):

    -6.0677   1.3176   3.3119   4.0271   8.4531   9.6831  10.6348  11.7370

          k = 0.6429-0.3571 0.7857 (  1473 PWs)   bands (ev):

    -5.4558  -0.0673   2.7759   3.7145   8.4023   9.8946  11.4071  11.7671

          k = 0.5000-0.2143 0.6429 (  1482 PWs)   bands (ev):

    -5.3294  -0.3062   2.5320   3.8260   8.6300   9.6283  11.3568  12.9671

          k = 0.3571-0.0714 0.5000 (  1470 PWs)   bands (ev):

    -5.8632   0.7948   2.7620   4.2738   9.1181   9.6957  10.9192  11.4087

          k = 0.2143 0.0714 0.3571 (  1469 PWs)   bands (ev):

    -6.4364   2.0931   3.8602   4.6414   8.8659   9.5244  10.6983  10.9223

          k =-0.0714 0.6429 0.0714 (  1467 PWs)   bands (ev):

    -5.7162   0.8352   3.1894   3.3533   7.3197   8.3926  12.7790  13.0673

          k = 0.7857-0.2143 0.9286 (  1475 PWs)   bands (ev):

    -5.2127   0.0500   2.4260   3.0094   7.4638   8.6958  12.5082  14.1035

          k = 0.6429-0.0714 0.7857 (  1481 PWs)   bands (ev):

    -4.9867  -0.1451   1.5231   3.1773   7.8255  10.7856  12.0749  13.2842

          k = 0.5000 0.0714 0.6429 (  1482 PWs)   bands (ev):

    -5.3005   0.0598   1.8442   3.7198   8.5514  10.4516  11.7867  12.4256

          k = 0.3571 0.2143 0.5000 (  1466 PWs)   bands (ev):

    -5.7901   0.2689   3.4379   4.2346   8.4877   9.6316  10.6649  12.0548

          k =-0.0714-1.0714 0.0714 (  1478 PWs)   bands (ev):

    -4.9484  -0.3949   2.6632   2.9262   6.6330   7.6234  15.1631  15.1697

          k =-0.2143-0.9286-0.0714 (  1478 PWs)   bands (ev):

    -4.9344  -0.3007   2.2021   2.8036   7.2282   8.4798  13.6063  14.8619

          k =-0.3571-0.7857-0.2143 (  1482 PWs)   bands (ev):

    -5.1614  -0.1856   2.0507   3.3515   8.0403  10.5786  11.4259  12.6903

          k =-0.5000-0.6429-0.3571 (  1482 PWs)   bands (ev):

    -5.4009  -0.5548   3.3278   4.0343   8.3410   9.4353  10.5005  13.4120

          k =-0.0714-0.7857 0.0714 (  1480 PWs)   bands (ev):

    -5.2592   0.0722   2.8416   3.0710   6.8775   7.8737  14.0172  14.1766

          k =-0.2143-0.6429-0.0714 (  1472 PWs)   bands (ev):

    -5.6339   0.6235   2.8191   3.4307   7.9008   9.1359  11.4538  12.8942

          k =-0.0714-0.5000 0.0714 (  1467 PWs)   bands (ev):

    -6.1765   1.7435   3.6835   3.7551   7.8870   9.1266  11.6107  11.9908

          k =-0.2143 0.2143 0.2143 (  1471 PWs)   bands (ev):

    -6.5686   2.2135   4.7287   4.7287   8.1412  10.0934  10.0934  11.3066

          k =-0.3571 0.3571 0.0714 (  1470 PWs)   bands (ev):

    -6.1953   1.4015   3.3054   4.7060   8.9533  10.0993  10.2944  11.3603

          k = 0.5000-0.5000 0.9286 (  1478 PWs)   bands (ev):

    -5.5918   0.3515   2.2403   4.2116   8.6144  10.6860  11.0313  12.0149

          k = 0.3571-0.3571 0.7857 (  1478 PWs)   bands (ev):

    -5.2248  -0.3375   2.2513   3.7443   8.0218  10.6506  11.3958  12.6562

          k = 0.2143-0.2143 0.6429 (  1468 PWs)   bands (ev):

    -5.5684   0.3045   2.8596   3.5688   7.8667  10.0509  11.2347  11.8830

          k =-0.2143 0.5000 0.2143 (  1469 PWs)   bands (ev):

    -5.9700   0.8144   3.7029   3.9250   8.3436   9.9630  10.9174  11.1285

          k = 0.6429-0.3571 1.0714 (  1479 PWs)   bands (ev):

    -5.4850   0.3207   2.3105   3.5765   8.8974   9.9152  10.4716  12.6915

          k = 0.5000-0.2143 0.9286 (  1481 PWs)   bands (ev):

    -5.0520  -0.0678   1.6379   3.0009   8.9294  10.2548  11.5305  12.7865

          k = 0.3571-0.0714 0.7857 (  1481 PWs)   bands (ev):

    -5.1352  -0.0005   1.9856   2.9189   8.5281   9.9279  10.9098  14.0027

          k =-0.2143-1.2143 0.2143 (  1476 PWs)   bands (ev):

    -5.1902  -0.0500   2.1454   3.3130   7.4197   9.7137  12.4032  12.7729

          k =-0.3571-1.0714 0.0714 (  1480 PWs)   bands (ev):

    -4.9166  -0.1613   1.8083   2.5295   8.3252   9.7689  11.8834  13.2101

          k =-0.5000-0.9286-0.0714 (  1474 PWs)   bands (ev):

    -4.9086  -0.0875   1.6499   2.4030   9.2829  10.5111  11.2722  11.7547

          k =-0.2143-0.9286 0.2143 (  1479 PWs)   bands (ev):

    -4.9492  -0.2353   1.7294   3.1802   7.1757   9.5302  13.6677  13.6699

          k =-0.3571 0.3571 0.3571 (  1465 PWs)   bands (ev):

    -5.9052   0.1929   4.4095   4.4095   7.6691   9.9943   9.9943  12.8751

          k = 0.5000-0.5000 1.2143 (  1476 PWs)   bands (ev):

    -5.5605  -0.1296   2.9984   4.2388   8.4727   9.8584  10.4448  13.0596

          k = 0.3571-0.3571 1.0714 (  1486 PWs)   bands (ev):

    -5.1218  -0.0904   1.5469   3.6441   7.8348  11.5790  12.1748  12.6581

          k =-0.3571-1.3571 0.3571 (  1473 PWs)   bands (ev):

    -5.4181  -0.4211   3.1843   3.9295   8.2279   9.7687  10.6875  12.8242

          k =-0.5000-1.2143 0.2143 (  1480 PWs)   bands (ev):

    -5.1483  -0.2482   2.0500   3.3058   8.9464   9.5835  12.3251  12.7281

          k = 0.5000-0.5000-0.5000 (  1476 PWs)   bands (ev):

    -5.5013  -0.6826   4.2898   4.2898   7.4883   9.8212   9.8212  12.8957

     highest occupied, lowest unoccupied level (ev):     5.0625    6.6330

!    total energy              =     -17.01921484 Ry
     Harris-Foulkes estimate   =     -17.01921480 Ry
     estimated scf accuracy    <          1.6E-12 Ry

     The total energy is the sum of the following terms:

     one-electron contribution =       3.40047572 Ry
     hartree contribution      =       1.55024748 Ry
     xc contribution           =      -4.83247237 Ry
     ewald contribution        =     -17.13746568 Ry

     convergence has been achieved in  10 iterations

     Forces acting on atoms (Ry/au):

     atom    1 type  1   force =     0.00000000    0.00000000    0.00000000
     atom    2 type  2   force =     0.00000000    0.00000000    0.00000000

     Total force =     0.000000     Total SCF correction =     0.000000


     entering subroutine stress ...

          total   stress  (Ry/bohr**3)                   (kbar)     P=   20.52
   0.00013948   0.00000000   0.00000000         20.52      0.00      0.00
   0.00000000   0.00013948   0.00000000          0.00     20.52      0.00
   0.00000000   0.00000000   0.00013948          0.00      0.00     20.52


     Writing output data file alas.save
 
     init_run     :      1.01s CPU      1.09s WALL (       1 calls)
     electrons    :     29.85s CPU     30.98s WALL (       1 calls)
     forces       :      0.10s CPU      0.11s WALL (       1 calls)
     stress       :      0.48s CPU      0.52s WALL (       1 calls)

     Called by init_run:
     wfcinit      :      0.80s CPU      0.85s WALL (       1 calls)
     potinit      :      0.08s CPU      0.09s WALL (       1 calls)

     Called by electrons:
     c_bands      :     22.40s CPU     23.23s WALL (      11 calls)
     sum_band     :      6.58s CPU      6.82s WALL (      11 calls)
     v_of_rho     :      0.33s CPU      0.34s WALL (      11 calls)
     mix_rho      :      0.26s CPU      0.27s WALL (      11 calls)

     Called by c_bands:
     init_us_2    :      0.70s CPU      0.60s WALL (    1100 calls)
     cegterg      :     21.86s CPU     22.66s WALL (     484 calls)

     Called by *egterg:
     h_psi        :     20.23s CPU     20.91s WALL (    1541 calls)
     g_psi        :      0.28s CPU      0.25s WALL (    1013 calls)
     cdiaghg      :      0.42s CPU      0.38s WALL (    1453 calls)

     Called by h_psi:
     add_vuspsi   :      0.18s CPU      0.24s WALL (    1541 calls)

     General routines
     calbec       :      0.34s CPU      0.32s WALL (    1629 calls)
     fft          :      0.74s CPU      0.79s WALL (      81 calls)
     ffts         :      0.02s CPU      0.02s WALL (      22 calls)
     fftw         :     13.22s CPU     13.45s WALL (   23152 calls)
     interpolate  :      0.28s CPU      0.28s WALL (      22 calls)
     davcio       :      0.18s CPU      0.21s WALL (    1584 calls)
 
 
     PWSCF        :    31.61s CPU        32.90s WALL

 
   This run was terminated on:   3:32:53  23Jun2014            

=------------------------------------------------------------------------------=
   JOB DONE.
=------------------------------------------------------------------------------=
