
     Program PWSCF v.4.3.2      starts on 23Jun2014 at  3:31:58 

     This program is part of the open-source Quantum ESPRESSO suite
     for quantum simulation of materials; please cite
         "P. Giannozzi et al., J. Phys.:Condens. Matter 21 395502 (2009);
          URL http://www.quantum-espresso.org", 
     in publications or presentations arising from this work. More details at
     http://www.quantum-espresso.org/wiki/index.php/Citing_Quantum-ESPRESSO

     Current dimensions of program PWSCF are:
     Max number of different atomic species (ntypx) = 10
     Max number of k-points (npk) =  40000
     Max angular momentum in pseudopotentials (lmaxx) =  3
     Waiting for input...
     Reading input from stdin
Warning: card   &IONS ignored
Warning: card   / ignored
Warning: card   &CELL ignored
Warning: card   / ignored
     Message from routine setup:
     no reason to have ecutrho>4*ecutwfc
 
     G-vector sticks info
     --------------------
     sticks:   dense  smooth     PW     G-vecs:    dense   smooth      PW
     Sum        1723     673    211                46679    11791    2085
 


     bravais-lattice index     =            2
     lattice parameter (alat)  =      10.5000  a.u.
     unit-cell volume          =     289.4062 (a.u.)^3
     number of atoms/cell      =            2
     number of atomic types    =            2
     number of electrons       =         8.00
     number of Kohn-Sham states=            8
     kinetic-energy cutoff     =      45.0000  Ry
     charge density cutoff     =     450.0000  Ry
     convergence threshold     =      1.0E-10
     mixing beta               =       0.5000
     number of iterations used =            8  plain     mixing
     Exchange-correlation      =  SLA  PZ   NOGX NOGC ( 1 1 0 0 0)
     EXX-fraction              =        0.00

     celldm(1)=  10.500000  celldm(2)=   0.000000  celldm(3)=   0.000000
     celldm(4)=   0.000000  celldm(5)=   0.000000  celldm(6)=   0.000000

     crystal axes: (cart. coord. in units of alat)
               a(1) = (  -0.500000   0.000000   0.500000 )  
               a(2) = (   0.000000   0.500000   0.500000 )  
               a(3) = (  -0.500000   0.500000   0.000000 )  

     reciprocal axes: (cart. coord. in units 2 pi/alat)
               b(1) = ( -1.000000 -1.000000  1.000000 )  
               b(2) = (  1.000000  1.000000  1.000000 )  
               b(3) = ( -1.000000  1.000000 -1.000000 )  


     PseudoPot. # 1 for Al read from file:
     ../../pseudo/Al.pz-vbc.UPF
     MD5 check sum: 614279c88ff8d45c90147292d03ed420
     Pseudo is Norm-conserving, Zval =  3.0
     Generated by new atomic code, or converted to UPF format
     Using radial grid of  171 points,  2 beta functions with: 
                l(1) =   0
                l(2) =   1

     PseudoPot. # 2 for As read from file:
     ../../pseudo/As.pz-bhs.UPF
     MD5 check sum: 451cd3365afcfc94d28b1934951c34a8
     Pseudo is Norm-conserving, Zval =  5.0
     Generated by new atomic code, or converted to UPF format
     Using radial grid of  525 points,  2 beta functions with: 
                l(1) =   0
                l(2) =   1

     atomic species   valence    mass     pseudopotential
        Al             3.00    26.98000     Al( 1.00)
        As             5.00    74.92000     As( 1.00)

     24 Sym.Ops. (no inversion)


   Cartesian axes

     site n.     atom                  positions (alat units)
         1           Al  tau(   1) = (   0.0000000   0.0000000   0.0000000  )
         2           As  tau(   2) = (   0.2500000   0.2500000   0.2500000  )

     number of k points=    28
                       cart. coord. in units 2pi/alat
        k(    1) = (  -0.0833333   0.0833333   0.0833333), wk =   0.0185185
        k(    2) = (  -0.2500000   0.2500000  -0.0833333), wk =   0.0555556
        k(    3) = (  -0.4166667   0.4166667  -0.2500000), wk =   0.0555556
        k(    4) = (   0.4166667  -0.4166667   0.5833333), wk =   0.0555556
        k(    5) = (   0.2500000  -0.2500000   0.4166667), wk =   0.0555556
        k(    6) = (   0.0833333  -0.0833333   0.2500000), wk =   0.0555556
        k(    7) = (  -0.0833333   0.4166667   0.0833333), wk =   0.0555556
        k(    8) = (  -0.2500000   0.5833333  -0.0833333), wk =   0.1111111
        k(    9) = (   0.5833333  -0.2500000   0.7500000), wk =   0.1111111
        k(   10) = (   0.4166667  -0.0833333   0.5833333), wk =   0.1111111
        k(   11) = (   0.2500000   0.0833333   0.4166667), wk =   0.1111111
        k(   12) = (  -0.0833333   0.7500000   0.0833333), wk =   0.0555556
        k(   13) = (   0.7500000  -0.0833333   0.9166667), wk =   0.1111111
        k(   14) = (   0.5833333   0.0833333   0.7500000), wk =   0.1111111
        k(   15) = (   0.4166667   0.2500000   0.5833333), wk =   0.1111111
        k(   16) = (  -0.0833333  -0.9166667   0.0833333), wk =   0.0555556
        k(   17) = (  -0.2500000  -0.7500000  -0.0833333), wk =   0.1111111
        k(   18) = (  -0.0833333  -0.5833333   0.0833333), wk =   0.0555556
        k(   19) = (  -0.2500000   0.2500000   0.2500000), wk =   0.0185185
        k(   20) = (  -0.4166667   0.4166667   0.0833333), wk =   0.0555556
        k(   21) = (   0.4166667  -0.4166667   0.9166667), wk =   0.0555556
        k(   22) = (   0.2500000  -0.2500000   0.7500000), wk =   0.0555556
        k(   23) = (  -0.2500000   0.5833333   0.2500000), wk =   0.0555556
        k(   24) = (   0.5833333  -0.2500000   1.0833333), wk =   0.1111111
        k(   25) = (   0.4166667  -0.0833333   0.9166667), wk =   0.1111111
        k(   26) = (  -0.2500000  -1.0833333   0.2500000), wk =   0.0555556
        k(   27) = (  -0.4166667   0.4166667   0.4166667), wk =   0.0185185
        k(   28) = (   0.4166667  -0.4166667   1.2500000), wk =   0.0555556

     Dense  grid:    46679 G-vectors     FFT dimensions: (  54,  54,  54)

     Smooth grid:    11791 G-vectors     FFT dimensions: (  32,  32,  32)

     Largest allocated arrays     est. size (Mb)     dimensions
        Kohn-Sham Wavefunctions         0.18 Mb     (   1482,    8)
        NL pseudopotentials             0.18 Mb     (   1482,    8)
        Each V/rho on FFT grid          2.40 Mb     ( 157464)
        Each G-vector array             0.36 Mb     (  46679)
        G-vector shells                 0.00 Mb     (    422)
     Largest temporary arrays     est. size (Mb)     dimensions
        Auxiliary wavefunctions         0.72 Mb     (   1482,   32)
        Each subspace H/S matrix        0.02 Mb     (  32,  32)
        Each <psi_i|beta_j> matrix      0.00 Mb     (      8,    8)
        Arrays for rho mixing          19.22 Mb     ( 157464,   8)

     Initial potential from superposition of free atoms

     starting charge    7.99774, renormalised to    8.00000

     negative rho (up, down):  0.262E-04 0.000E+00
     Starting wfc are    8 atomic wfcs

     total cpu time spent up to now is        0.8 secs

     per-process dynamical memory:    25.5 Mb

     Self-consistent Calculation

     iteration #  1     ecut=    45.00 Ry     beta=0.50
     Davidson diagonalization with overlap
     ethr =  1.00E-02,  avg # of iterations =  4.1

     Threshold (ethr) on eigenvalues was too large:
     Diagonalizing with lowered threshold

     Davidson diagonalization with overlap
     ethr =  9.02E-04,  avg # of iterations =  1.0

     negative rho (up, down):  0.128E-04 0.000E+00

     total cpu time spent up to now is        5.0 secs

     total energy              =     -17.00998437 Ry
     Harris-Foulkes estimate   =     -17.02839594 Ry
     estimated scf accuracy    <       0.07219673 Ry

     iteration #  2     ecut=    45.00 Ry     beta=0.50
     Davidson diagonalization with overlap
     ethr =  9.02E-04,  avg # of iterations =  1.0

     negative rho (up, down):  0.759E-05 0.000E+00

     total cpu time spent up to now is        6.6 secs

     total energy              =     -17.01804228 Ry
     Harris-Foulkes estimate   =     -17.01676859 Ry
     estimated scf accuracy    <       0.00658865 Ry

     iteration #  3     ecut=    45.00 Ry     beta=0.50
     Davidson diagonalization with overlap
     ethr =  8.24E-05,  avg # of iterations =  1.6

     negative rho (up, down):  0.147E-04 0.000E+00

     total cpu time spent up to now is        8.3 secs

     total energy              =     -17.01894778 Ry
     Harris-Foulkes estimate   =     -17.01846191 Ry
     estimated scf accuracy    <       0.00080856 Ry

     iteration #  4     ecut=    45.00 Ry     beta=0.50
     Davidson diagonalization with overlap
     ethr =  1.01E-05,  avg # of iterations =  2.8

     negative rho (up, down):  0.318E-05 0.000E+00

     total cpu time spent up to now is       10.2 secs

     total energy              =     -17.01916294 Ry
     Harris-Foulkes estimate   =     -17.01903189 Ry
     estimated scf accuracy    <       0.00001864 Ry

     iteration #  5     ecut=    45.00 Ry     beta=0.50
     Davidson diagonalization with overlap
     ethr =  2.33E-07,  avg # of iterations =  2.4

     negative rho (up, down):  0.106E-05 0.000E+00

     total cpu time spent up to now is       12.2 secs

     total energy              =     -17.01920080 Ry
     Harris-Foulkes estimate   =     -17.01916848 Ry
     estimated scf accuracy    <       0.00000609 Ry

     iteration #  6     ecut=    45.00 Ry     beta=0.50
     Davidson diagonalization with overlap
     ethr =  7.61E-08,  avg # of iterations =  1.2

     negative rho (up, down):  0.210E-06 0.000E+00

     total cpu time spent up to now is       13.8 secs

     total energy              =     -17.01921034 Ry
     Harris-Foulkes estimate   =     -17.01920156 Ry
     estimated scf accuracy    <       0.00000001 Ry

     iteration #  7     ecut=    45.00 Ry     beta=0.50
     Davidson diagonalization with overlap
     ethr =  1.70E-10,  avg # of iterations =  3.1

     total cpu time spent up to now is       16.1 secs

     total energy              =     -17.01921258 Ry
     Harris-Foulkes estimate   =     -17.01921039 Ry
     estimated scf accuracy    <       0.00000002 Ry

     iteration #  8     ecut=    45.00 Ry     beta=0.50
     Davidson diagonalization with overlap
     ethr =  1.70E-10,  avg # of iterations =  2.0

     total cpu time spent up to now is       17.9 secs

     total energy              =     -17.01921315 Ry
     Harris-Foulkes estimate   =     -17.01921259 Ry
     estimated scf accuracy    <          6.1E-10 Ry

     iteration #  9     ecut=    45.00 Ry     beta=0.50
     Davidson diagonalization with overlap
     ethr =  7.58E-12,  avg # of iterations =  2.1

     total cpu time spent up to now is       19.6 secs

     total energy              =     -17.01921329 Ry
     Harris-Foulkes estimate   =     -17.01921315 Ry
     estimated scf accuracy    <          1.1E-10 Ry

     iteration # 10     ecut=    45.00 Ry     beta=0.50
     Davidson diagonalization with overlap
     ethr =  1.34E-12,  avg # of iterations =  1.8

     total cpu time spent up to now is       21.3 secs

     End of self-consistent calculation

          k =-0.0833 0.0833 0.0833 (  1459 PWs)   bands (ev):

    -6.9554   4.3583   5.0429   5.0429   8.1839   9.6529   9.6596   9.6596

          k =-0.2500 0.2500-0.0833 (  1470 PWs)   bands (ev):

    -6.5853   2.4664   4.1791   4.9227   8.6576   9.9344   9.9480  11.1042

          k =-0.4167 0.4167-0.2500 (  1467 PWs)   bands (ev):

    -5.8346   0.1891   3.7606   4.4600   8.1374   9.9440  10.0675  12.7936

          k = 0.4167-0.4167 0.5833 (  1471 PWs)   bands (ev):

    -5.4727  -0.5882   3.8083   4.1526   7.9639   9.6115  10.1313  13.2008

          k = 0.2500-0.2500 0.4167 (  1470 PWs)   bands (ev):

    -6.0968   0.8538   4.2057   4.2312   8.2445   9.7627  10.5593  11.7828

          k = 0.0833-0.0833 0.2500 (  1460 PWs)   bands (ev):

    -6.7660   3.3495   4.6129   4.7274   8.7762   9.2155  10.3281  10.5057

          k =-0.0833 0.4167 0.0833 (  1471 PWs)   bands (ev):

    -6.4026   2.2399   4.0257   4.0378   8.2991   9.5037  10.9996  11.3613

          k =-0.2500 0.5833-0.0833 (  1472 PWs)   bands (ev):

    -5.7781   0.7776   2.9105   3.7193   8.3182   9.6741  10.7306  12.2730

          k = 0.5833-0.2500 0.7500 (  1482 PWs)   bands (ev):

    -5.2240  -0.2974   2.3040   3.5289   8.4245   9.9697  11.8905  12.3944

          k = 0.4167-0.0833 0.5833 (  1478 PWs)   bands (ev):

    -5.5531   0.3158   2.3067   3.9466   8.9969   9.7950  11.2180  11.9533

          k = 0.2500 0.0833 0.4167 (  1473 PWs)   bands (ev):

    -6.2414   1.5651   3.5335   4.4690   8.8576   9.6584  10.7795  11.0045

          k =-0.0833 0.7500 0.0833 (  1480 PWs)   bands (ev):

    -5.3613   0.2363   2.8564   3.1403   7.0207   8.0623  13.5804  13.8097

          k = 0.7500-0.0833 0.9167 (  1480 PWs)   bands (ev):

    -4.9440  -0.2496   2.0576   2.7924   7.4469   8.8524  13.0843  14.5613

          k = 0.5833 0.0833 0.7500 (  1479 PWs)   bands (ev):

    -5.0554  -0.1163   1.5676   3.2872   8.1736  10.9450  12.0410  12.8213

          k = 0.4167 0.2500 0.5833 (  1474 PWs)   bands (ev):

    -5.5138  -0.2195   3.1297   4.0178   8.5512   9.4613  10.8207  12.6246

          k =-0.0833-0.9167 0.0833 (  1478 PWs)   bands (ev):

    -4.9626  -0.3634   2.5995   2.9445   6.6918   7.7259  14.9763  15.0039

          k =-0.2500-0.7500-0.0833 (  1477 PWs)   bands (ev):

    -5.2881   0.1431   2.3841   3.1017   7.7589   9.1322  11.8279  13.6885

          k =-0.0833-0.5833 0.0833 (  1469 PWs)   bands (ev):

    -5.9045   1.1698   3.3508   3.5173   7.5967   8.7539  12.1433  12.5487

          k =-0.2500 0.2500 0.2500 (  1462 PWs)   bands (ev):

    -6.4156   1.6470   4.6366   4.6366   8.0100  10.1304  10.1304  11.8540

          k =-0.4167 0.4167 0.0833 (  1469 PWs)   bands (ev):

    -5.9409   0.8582   2.8838   4.5196   8.9009  10.2106  10.5279  11.6326

          k = 0.4167-0.4167 0.9167 (  1482 PWs)   bands (ev):

    -5.2866  -0.0019   1.8073   3.8804   8.1669  11.1960  11.5972  12.6551

          k = 0.2500-0.2500 0.7500 (  1473 PWs)   bands (ev):

    -5.2566  -0.0852   2.2645   3.4572   7.6510  10.3581  11.7668  12.1799

          k =-0.2500 0.5833 0.2500 (  1471 PWs)   bands (ev):

    -5.6787   0.2587   3.2551   3.7806   8.1692  10.1461  11.1705  11.2510

          k = 0.5833-0.2500 1.0833 (  1480 PWs)   bands (ev):

    -5.1708  -0.0015   1.8962   3.1142   8.9973   9.9821  10.8540  13.5082

          k = 0.4167-0.0833 0.9167 (  1477 PWs)   bands (ev):

    -4.9250  -0.1126   1.6909   2.5161   8.7985  10.3762  11.2369  12.5984

          k =-0.2500-1.0833 0.2500 (  1477 PWs)   bands (ev):

    -4.9777  -0.1929   1.6045   3.2852   7.3325  10.1707  13.1791  13.2119

          k =-0.4167 0.4167 0.4167 (  1480 PWs)   bands (ev):

    -5.6572  -0.3653   4.3311   4.3311   7.5506   9.8868   9.8868  12.9253

          k = 0.4167-0.4167 1.2500 (  1480 PWs)   bands (ev):

    -5.3435  -0.4222   2.7427   3.9823   8.2968   9.9914  10.7616  13.4107

     highest occupied, lowest unoccupied level (ev):     5.0429    6.6918

!    total energy              =     -17.01921334 Ry
     Harris-Foulkes estimate   =     -17.01921329 Ry
     estimated scf accuracy    <          1.1E-12 Ry

     The total energy is the sum of the following terms:

     one-electron contribution =       3.40046708 Ry
     hartree contribution      =       1.55026338 Ry
     xc contribution           =      -4.83247812 Ry
     ewald contribution        =     -17.13746568 Ry

     convergence has been achieved in  10 iterations

     Forces acting on atoms (Ry/au):

     atom    1 type  1   force =     0.00000000    0.00000000    0.00000000
     atom    2 type  2   force =     0.00000000    0.00000000    0.00000000

     Total force =     0.000000     Total SCF correction =     0.000000


     entering subroutine stress ...

          total   stress  (Ry/bohr**3)                   (kbar)     P=   20.52
   0.00013950   0.00000000   0.00000000         20.52      0.00      0.00
   0.00000000   0.00013950   0.00000000          0.00     20.52      0.00
   0.00000000   0.00000000   0.00013950          0.00      0.00     20.52


     Writing output data file alas.save
 
     init_run     :      0.73s CPU      0.79s WALL (       1 calls)
     electrons    :     19.61s CPU     20.46s WALL (       1 calls)
     forces       :      0.08s CPU      0.09s WALL (       1 calls)
     stress       :      0.34s CPU      0.39s WALL (       1 calls)

     Called by init_run:
     wfcinit      :      0.52s CPU      0.54s WALL (       1 calls)
     potinit      :      0.08s CPU      0.09s WALL (       1 calls)

     Called by electrons:
     c_bands      :     14.38s CPU     14.95s WALL (      11 calls)
     sum_band     :      4.35s CPU      4.55s WALL (      11 calls)
     v_of_rho     :      0.32s CPU      0.34s WALL (      11 calls)
     mix_rho      :      0.26s CPU      0.27s WALL (      11 calls)

     Called by c_bands:
     init_us_2    :      0.37s CPU      0.38s WALL (     700 calls)
     cegterg      :     14.07s CPU     14.58s WALL (     308 calls)

     Called by *egterg:
     h_psi        :     12.90s CPU     13.47s WALL (     983 calls)
     g_psi        :      0.17s CPU      0.16s WALL (     647 calls)
     cdiaghg      :      0.25s CPU      0.24s WALL (     927 calls)

     Called by h_psi:
     add_vuspsi   :      0.12s CPU      0.15s WALL (     983 calls)

     General routines
     calbec       :      0.19s CPU      0.20s WALL (    1039 calls)
     fft          :      0.76s CPU      0.79s WALL (      81 calls)
     ffts         :      0.01s CPU      0.02s WALL (      22 calls)
     fftw         :      8.61s CPU      8.78s WALL (   14738 calls)
     interpolate  :      0.27s CPU      0.29s WALL (      22 calls)
     davcio       :      0.13s CPU      0.14s WALL (    1008 calls)
 
 
     PWSCF        :    20.93s CPU        21.89s WALL

 
   This run was terminated on:   3:32:20  23Jun2014            

=------------------------------------------------------------------------------=
   JOB DONE.
=------------------------------------------------------------------------------=
