
     Program PWSCF v.4.3.2      starts on 23Jun2014 at  3:31:35 

     This program is part of the open-source Quantum ESPRESSO suite
     for quantum simulation of materials; please cite
         "P. Giannozzi et al., J. Phys.:Condens. Matter 21 395502 (2009);
          URL http://www.quantum-espresso.org", 
     in publications or presentations arising from this work. More details at
     http://www.quantum-espresso.org/wiki/index.php/Citing_Quantum-ESPRESSO

     Current dimensions of program PWSCF are:
     Max number of different atomic species (ntypx) = 10
     Max number of k-points (npk) =  40000
     Max angular momentum in pseudopotentials (lmaxx) =  3
     Waiting for input...
     Reading input from stdin
Warning: card   &IONS ignored
Warning: card   / ignored
Warning: card   &CELL ignored
Warning: card   / ignored
     Message from routine setup:
     no reason to have ecutrho>4*ecutwfc
 
     G-vector sticks info
     --------------------
     sticks:   dense  smooth     PW     G-vecs:    dense   smooth      PW
     Sum        1723     673    211                46679    11791    2085
 


     bravais-lattice index     =            2
     lattice parameter (alat)  =      10.5000  a.u.
     unit-cell volume          =     289.4062 (a.u.)^3
     number of atoms/cell      =            2
     number of atomic types    =            2
     number of electrons       =         8.00
     number of Kohn-Sham states=            8
     kinetic-energy cutoff     =      45.0000  Ry
     charge density cutoff     =     450.0000  Ry
     convergence threshold     =      1.0E-10
     mixing beta               =       0.5000
     number of iterations used =            8  plain     mixing
     Exchange-correlation      =  SLA  PZ   NOGX NOGC ( 1 1 0 0 0)
     EXX-fraction              =        0.00

     celldm(1)=  10.500000  celldm(2)=   0.000000  celldm(3)=   0.000000
     celldm(4)=   0.000000  celldm(5)=   0.000000  celldm(6)=   0.000000

     crystal axes: (cart. coord. in units of alat)
               a(1) = (  -0.500000   0.000000   0.500000 )  
               a(2) = (   0.000000   0.500000   0.500000 )  
               a(3) = (  -0.500000   0.500000   0.000000 )  

     reciprocal axes: (cart. coord. in units 2 pi/alat)
               b(1) = ( -1.000000 -1.000000  1.000000 )  
               b(2) = (  1.000000  1.000000  1.000000 )  
               b(3) = ( -1.000000  1.000000 -1.000000 )  


     PseudoPot. # 1 for Al read from file:
     ../../pseudo/Al.pz-vbc.UPF
     MD5 check sum: 614279c88ff8d45c90147292d03ed420
     Pseudo is Norm-conserving, Zval =  3.0
     Generated by new atomic code, or converted to UPF format
     Using radial grid of  171 points,  2 beta functions with: 
                l(1) =   0
                l(2) =   1

     PseudoPot. # 2 for As read from file:
     ../../pseudo/As.pz-bhs.UPF
     MD5 check sum: 451cd3365afcfc94d28b1934951c34a8
     Pseudo is Norm-conserving, Zval =  5.0
     Generated by new atomic code, or converted to UPF format
     Using radial grid of  525 points,  2 beta functions with: 
                l(1) =   0
                l(2) =   1

     atomic species   valence    mass     pseudopotential
        Al             3.00    26.98000     Al( 1.00)
        As             5.00    74.92000     As( 1.00)

     24 Sym.Ops. (no inversion)


   Cartesian axes

     site n.     atom                  positions (alat units)
         1           Al  tau(   1) = (   0.0000000   0.0000000   0.0000000  )
         2           As  tau(   2) = (   0.2500000   0.2500000   0.2500000  )

     number of k points=    10
                       cart. coord. in units 2pi/alat
        k(    1) = (  -0.1250000   0.1250000   0.1250000), wk =   0.0625000
        k(    2) = (  -0.3750000   0.3750000  -0.1250000), wk =   0.1875000
        k(    3) = (   0.3750000  -0.3750000   0.6250000), wk =   0.1875000
        k(    4) = (   0.1250000  -0.1250000   0.3750000), wk =   0.1875000
        k(    5) = (  -0.1250000   0.6250000   0.1250000), wk =   0.1875000
        k(    6) = (   0.6250000  -0.1250000   0.8750000), wk =   0.3750000
        k(    7) = (   0.3750000   0.1250000   0.6250000), wk =   0.3750000
        k(    8) = (  -0.1250000  -0.8750000   0.1250000), wk =   0.1875000
        k(    9) = (  -0.3750000   0.3750000   0.3750000), wk =   0.0625000
        k(   10) = (   0.3750000  -0.3750000   1.1250000), wk =   0.1875000

     Dense  grid:    46679 G-vectors     FFT dimensions: (  54,  54,  54)

     Smooth grid:    11791 G-vectors     FFT dimensions: (  32,  32,  32)

     Largest allocated arrays     est. size (Mb)     dimensions
        Kohn-Sham Wavefunctions         0.18 Mb     (   1483,    8)
        NL pseudopotentials             0.18 Mb     (   1483,    8)
        Each V/rho on FFT grid          2.40 Mb     ( 157464)
        Each G-vector array             0.36 Mb     (  46679)
        G-vector shells                 0.00 Mb     (    422)
     Largest temporary arrays     est. size (Mb)     dimensions
        Auxiliary wavefunctions         0.72 Mb     (   1483,   32)
        Each subspace H/S matrix        0.02 Mb     (  32,  32)
        Each <psi_i|beta_j> matrix      0.00 Mb     (      8,    8)
        Arrays for rho mixing          19.22 Mb     ( 157464,   8)

     Initial potential from superposition of free atoms

     starting charge    7.99774, renormalised to    8.00000

     negative rho (up, down):  0.262E-04 0.000E+00
     Starting wfc are    8 atomic wfcs

     total cpu time spent up to now is        0.5 secs

     per-process dynamical memory:    25.5 Mb

     Self-consistent Calculation

     iteration #  1     ecut=    45.00 Ry     beta=0.50
     Davidson diagonalization with overlap
     ethr =  1.00E-02,  avg # of iterations =  4.1

     Threshold (ethr) on eigenvalues was too large:
     Diagonalizing with lowered threshold

     Davidson diagonalization with overlap
     ethr =  9.03E-04,  avg # of iterations =  1.1

     negative rho (up, down):  0.128E-04 0.000E+00

     total cpu time spent up to now is        2.1 secs

     total energy              =     -17.00988611 Ry
     Harris-Foulkes estimate   =     -17.02834141 Ry
     estimated scf accuracy    <       0.07229389 Ry

     iteration #  2     ecut=    45.00 Ry     beta=0.50
     Davidson diagonalization with overlap
     ethr =  9.04E-04,  avg # of iterations =  1.0

     negative rho (up, down):  0.759E-05 0.000E+00

     total cpu time spent up to now is        2.8 secs

     total energy              =     -17.01795750 Ry
     Harris-Foulkes estimate   =     -17.01668324 Ry
     estimated scf accuracy    <       0.00660180 Ry

     iteration #  3     ecut=    45.00 Ry     beta=0.50
     Davidson diagonalization with overlap
     ethr =  8.25E-05,  avg # of iterations =  2.2

     negative rho (up, down):  0.148E-04 0.000E+00

     total cpu time spent up to now is        3.5 secs

     total energy              =     -17.01886109 Ry
     Harris-Foulkes estimate   =     -17.01837810 Ry
     estimated scf accuracy    <       0.00081994 Ry

     iteration #  4     ecut=    45.00 Ry     beta=0.50
     Davidson diagonalization with overlap
     ethr =  1.02E-05,  avg # of iterations =  2.6

     negative rho (up, down):  0.269E-05 0.000E+00

     total cpu time spent up to now is        4.2 secs

     total energy              =     -17.01906250 Ry
     Harris-Foulkes estimate   =     -17.01893057 Ry
     estimated scf accuracy    <       0.00001547 Ry

     iteration #  5     ecut=    45.00 Ry     beta=0.50
     Davidson diagonalization with overlap
     ethr =  1.93E-07,  avg # of iterations =  2.4

     negative rho (up, down):  0.105E-05 0.000E+00

     total cpu time spent up to now is        5.0 secs

     total energy              =     -17.01910132 Ry
     Harris-Foulkes estimate   =     -17.01906623 Ry
     estimated scf accuracy    <       0.00000218 Ry

     iteration #  6     ecut=    45.00 Ry     beta=0.50
     Davidson diagonalization with overlap
     ethr =  2.72E-08,  avg # of iterations =  1.3

     negative rho (up, down):  0.212E-06 0.000E+00

     total cpu time spent up to now is        5.7 secs

     total energy              =     -17.01911033 Ry
     Harris-Foulkes estimate   =     -17.01910154 Ry
     estimated scf accuracy    <       0.00000001 Ry

     iteration #  7     ecut=    45.00 Ry     beta=0.50
     Davidson diagonalization with overlap
     ethr =  1.46E-10,  avg # of iterations =  3.0

     total cpu time spent up to now is        6.5 secs

     total energy              =     -17.01911254 Ry
     Harris-Foulkes estimate   =     -17.01911034 Ry
     estimated scf accuracy    <          7.2E-09 Ry

     iteration #  8     ecut=    45.00 Ry     beta=0.50
     Davidson diagonalization with overlap
     ethr =  8.95E-11,  avg # of iterations =  1.9

     total cpu time spent up to now is        7.2 secs

     End of self-consistent calculation

          k =-0.1250 0.1250 0.1250 (  1450 PWs)   bands (ev):

    -6.8654   3.6989   4.9581   4.9581   8.3335   9.8085   9.8085  10.0060

          k =-0.3750 0.3750-0.1250 (  1472 PWs)   bands (ev):

    -6.0953   1.0442   3.3926   4.6336   8.7186  10.0908  10.2640  11.7572

          k = 0.3750-0.3750 0.6250 (  1474 PWs)   bands (ev):

    -5.4363  -0.4774   3.3761   4.0040   8.2152   9.6413  10.4960  13.0730

          k = 0.1250-0.1250 0.3750 (  1465 PWs)   bands (ev):

    -6.4544   2.2008   4.2089   4.2584   8.5915   9.5772  10.8067  10.9656

          k =-0.1250 0.6250 0.1250 (  1470 PWs)   bands (ev):

    -5.7302   0.7967   3.0804   3.4548   7.6151   8.9196  12.0199  12.5588

          k = 0.6250-0.1250 0.8750 (  1479 PWs)   bands (ev):

    -4.9877  -0.1283   1.7398   2.8174   8.3154  10.2932  11.3944  13.4441

          k = 0.3750 0.1250 0.6250 (  1477 PWs)   bands (ev):

    -5.4999   0.1959   2.4711   3.7174   8.8710   9.7027  11.0289  12.1341

          k =-0.1250-0.8750 0.1250 (  1476 PWs)   bands (ev):

    -5.0234  -0.2346   2.3679   3.0305   6.9082   8.2126  14.2059  14.3343

          k =-0.3750 0.3750 0.3750 (  1471 PWs)   bands (ev):

    -5.8229   0.0023   4.3828   4.3828   7.6278   9.9595   9.9595  12.9125

          k = 0.3750-0.3750 1.1250 (  1483 PWs)   bands (ev):

    -5.1853  -0.1701   1.8184   3.7379   7.9786  11.1768  11.7412  12.8022

     highest occupied, lowest unoccupied level (ev):     4.9581    6.9082

!    total energy              =     -17.01911329 Ry
     Harris-Foulkes estimate   =     -17.01911254 Ry
     estimated scf accuracy    <          4.5E-11 Ry

     The total energy is the sum of the following terms:

     one-electron contribution =       3.40023904 Ry
     hartree contribution      =       1.55077994 Ry
     xc contribution           =      -4.83266658 Ry
     ewald contribution        =     -17.13746568 Ry

     convergence has been achieved in   8 iterations

     Forces acting on atoms (Ry/au):

     atom    1 type  1   force =     0.00000000    0.00000000    0.00000000
     atom    2 type  2   force =     0.00000000    0.00000000    0.00000000

     Total force =     0.000000     Total SCF correction =     0.000000


     entering subroutine stress ...

          total   stress  (Ry/bohr**3)                   (kbar)     P=   20.55
   0.00013972   0.00000000   0.00000000         20.55      0.00      0.00
   0.00000000   0.00013972   0.00000000          0.00     20.55      0.00
   0.00000000   0.00000000   0.00013972          0.00      0.00     20.55


     Writing output data file alas.save
 
     init_run     :      0.40s CPU      0.44s WALL (       1 calls)
     electrons    :      6.42s CPU      6.69s WALL (       1 calls)
     forces       :      0.05s CPU      0.06s WALL (       1 calls)
     stress       :      0.22s CPU      0.25s WALL (       1 calls)

     Called by init_run:
     wfcinit      :      0.19s CPU      0.19s WALL (       1 calls)
     potinit      :      0.08s CPU      0.09s WALL (       1 calls)

     Called by electrons:
     c_bands      :      4.19s CPU      4.35s WALL (       9 calls)
     sum_band     :      1.54s CPU      1.61s WALL (       9 calls)
     v_of_rho     :      0.26s CPU      0.29s WALL (       9 calls)
     mix_rho      :      0.21s CPU      0.21s WALL (       9 calls)

     Called by c_bands:
     init_us_2    :      0.12s CPU      0.12s WALL (     210 calls)
     cegterg      :      4.06s CPU      4.24s WALL (      90 calls)

     Called by *egterg:
     h_psi        :      3.79s CPU      3.94s WALL (     296 calls)
     g_psi        :      0.04s CPU      0.05s WALL (     196 calls)
     cdiaghg      :      0.05s CPU      0.07s WALL (     276 calls)

     Called by h_psi:
     add_vuspsi   :      0.06s CPU      0.05s WALL (     296 calls)

     General routines
     calbec       :      0.06s CPU      0.06s WALL (     316 calls)
     fft          :      0.64s CPU      0.66s WALL (      67 calls)
     ffts         :      0.00s CPU      0.01s WALL (      18 calls)
     fftw         :      2.42s CPU      2.54s WALL (    4344 calls)
     interpolate  :      0.22s CPU      0.24s WALL (      18 calls)
     davcio       :      0.04s CPU      0.04s WALL (     300 calls)
 
 
     PWSCF        :     7.20s CPU         7.59s WALL

 
   This run was terminated on:   3:31:43  23Jun2014            

=------------------------------------------------------------------------------=
   JOB DONE.
=------------------------------------------------------------------------------=
