
     Program PHONON v.5.0.2 (svn rev. 10600) starts on  6Jul2014 at 18:58:59 

     This program is part of the open-source Quantum ESPRESSO suite
     for quantum simulation of materials; please cite
         "P. Giannozzi et al., J. Phys.:Condens. Matter 21 395502 (2009);
          URL http://www.quantum-espresso.org", 
     in publications or presentations arising from this work. More details at
     http://www.quantum-espresso.org/quote

     Parallel version (MPI), running on     4 processors
     R & G space division:  proc/nbgrp/npool/nimage =       4

   Info: using nr1, nr2, nr3 values from input

   Info: using nr1s, nr2s, nr3s values from input

     IMPORTANT: XC functional enforced from input :
     Exchange-correlation      =  SLA  PW   PBX  PBC ( 1  4  3  4 0)
     Any further DFT definition will be discarded
     Please, verify this is what you really want


     Parallelization info
     --------------------
     sticks:   dense  smooth     PW     G-vecs:    dense   smooth      PW
     Min        2181    2181    546               153411   153411   19202
     Max        2182    2182    547               153412   153412   19205
     Sum        8725    8725   2185               613645   613645   76813


     Calculation of q =    0.0000000   0.0000000   0.0000000

                                                                                

     bravais-lattice index     =            1
     lattice parameter (alat)  =      15.1178  a.u.
     unit-cell volume          =    3455.1473 (a.u.)^3
     number of atoms/cell      =            3
     number of atomic types    =            2
     kinetic-energy cut-off    =     120.0000  Ry
     charge density cut-off    =     480.0000  Ry
     convergence threshold     =      1.0E-14
     beta                      =       0.7000
     number of iterations used =            4
     Exchange-correlation      =  SLA  PW   PBX  PBC ( 1  4  3  4 0)


     celldm(1)=   15.11781  celldm(2)=    0.00000  celldm(3)=    0.00000
     celldm(4)=    0.00000  celldm(5)=    0.00000  celldm(6)=    0.00000

     crystal axes: (cart. coord. in units of alat)
               a(1) = (  1.0000  0.0000  0.0000 )  
               a(2) = (  0.0000  1.0000  0.0000 )  
               a(3) = (  0.0000  0.0000  1.0000 )  

     reciprocal axes: (cart. coord. in units 2 pi/alat)
               b(1) = (  1.0000  0.0000  0.0000 )  
               b(2) = (  0.0000  1.0000  0.0000 )  
               b(3) = (  0.0000  0.0000  1.0000 )  


     Atoms inside the unit cell: 

     Cartesian axes

     site n.  atom      mass           positions (alat units)
        1     C   12.0110   tau(    1) = (    0.50000    0.50000    0.50000  )
        2     O   15.9994   tau(    2) = (    0.41408    0.41408    0.41408  )
        3     O   15.9994   tau(    3) = (    0.58592    0.58592    0.58592  )

     Computing dynamical matrix for 
                    q = (   0.0000000   0.0000000   0.0000000 )

     13 Sym.Ops. (with q -> -q+G )


     G cutoff = 2778.8123  ( 153411 G-vectors)     FFT grid: (108,108,108)
     number of k points=     1
                       cart. coord. in units 2pi/alat
        k(    1) = (   0.0000000   0.0000000   0.0000000), wk =   2.0000000

     PseudoPot. # 1 for C  read from file:
     ../PP_LIBRARY/C.pbe-tm-gipaw.UPF
     MD5 check sum: f5344197f2589bbed12663c54b2ad746
     Pseudo is Norm-conserving, Zval =  4.0
     Generated by new atomic code, or converted to UPF format
     Using radial grid of 1073 points,  1 beta functions with: 
                l(1) =   0

     PseudoPot. # 2 for O  read from file:
     ../PP_LIBRARY/O.pbe-tm-gipaw.UPF
     MD5 check sum: b8927cfce6142b69338f4b9aad199cbd
     Pseudo is Norm-conserving, Zval =  6.0
     Generated by new atomic code, or converted to UPF format
     Using radial grid of 1095 points,  1 beta functions with: 
                l(1) =   0

     Mode symmetry, D_3d (-3m)  point group:

     k=gamma and q=gamma tricks are used


     Electric field:
     Dielectric constant and polarizability
     Born effective charges as d Force / d E


     Atomic displacements:
     There are   9 irreducible representations

     Representation     1      1 modes - Calculated using asr

     Representation     2      1 modes - Calculated using asr

     Representation     3      1 modes - Calculated using asr

     Representation     4      1 modes -A  To be done

     Representation     5      1 modes -A  To be done

     Representation     6      1 modes -A  To be done

     Representation     7      1 modes - Calculated using symmetry

     Representation     8      1 modes - Calculated using symmetry

     Representation     9      1 modes - Calculated using symmetry



     Alpha used in Ewald sum =   2.8000
     PHONON       :  1m 1.18s CPU     1m 1.42s WALL


     Electric Fields Calculation

      iter #   1 total cpu time :   130.9 secs   av.it.:   7.0
      thresh= 1.000E-02 alpha_mix =  0.700 |ddv_scf|^2 =  9.087E-09

      iter #   2 total cpu time :   170.8 secs   av.it.:  15.0
      thresh= 9.533E-06 alpha_mix =  0.700 |ddv_scf|^2 =  3.232E-08

      iter #   3 total cpu time :   212.5 secs   av.it.:  14.0
      thresh= 1.798E-05 alpha_mix =  0.700 |ddv_scf|^2 =  6.552E-10

      iter #   4 total cpu time :   260.0 secs   av.it.:  14.0
      thresh= 2.560E-06 alpha_mix =  0.700 |ddv_scf|^2 =  2.008E-10

      iter #   5 total cpu time :   300.1 secs   av.it.:  14.0
      thresh= 1.417E-06 alpha_mix =  0.700 |ddv_scf|^2 =  2.556E-12

      iter #   6 total cpu time :   339.4 secs   av.it.:  14.0
      thresh= 1.599E-07 alpha_mix =  0.700 |ddv_scf|^2 =  1.378E-14

      iter #   7 total cpu time :   381.3 secs   av.it.:  14.0
      thresh= 1.174E-08 alpha_mix =  0.700 |ddv_scf|^2 =  1.000E-17

     End of electric fields calculation

          Dielectric constant in cartesian axis 

          (       1.068638831       0.018186287       0.018186287 )
          (       0.018186287       1.068638831       0.018186287 )
          (       0.018186287       0.018186287       1.068638831 )

     Polarizability (a.u.)^3                    Polarizability (A^3)
     18.45      5.00      5.00             2.7340        0.7410        0.7410
      5.00     18.45      5.00             0.7410        2.7340        0.7410
      5.00      5.00     18.45             0.7410        0.7410        2.7340

          Effective charges (d Force / dE) in cartesian axis

           atom      1   C  
      Ex  (        1.03626        0.60077        0.60077 )
      Ey  (        0.60077        1.03626        0.60077 )
      Ez  (        0.60077        0.60077        1.03626 )
           atom      2   O  
      Ex  (       -0.51602       -0.30075       -0.30075 )
      Ey  (       -0.30075       -0.51602       -0.30075 )
      Ez  (       -0.30075       -0.30075       -0.51602 )
           atom      3   O  
      Ex  (       -0.51602       -0.30075       -0.30075 )
      Ey  (       -0.30075       -0.51602       -0.30075 )
      Ez  (       -0.30075       -0.30075       -0.51602 )


     Representation #  4 mode #   4

     Self-consistent Calculation

      iter #   1 total cpu time :   395.4 secs   av.it.:   9.0
      thresh= 1.000E-02 alpha_mix =  0.700 |ddv_scf|^2 =  6.492E-08

      iter #   2 total cpu time :   407.1 secs   av.it.:  16.0
      thresh= 2.548E-05 alpha_mix =  0.700 |ddv_scf|^2 =  4.004E-08

      iter #   3 total cpu time :   417.9 secs   av.it.:  15.0
      thresh= 2.001E-05 alpha_mix =  0.700 |ddv_scf|^2 =  1.598E-08

      iter #   4 total cpu time :   428.4 secs   av.it.:  14.0
      thresh= 1.264E-05 alpha_mix =  0.700 |ddv_scf|^2 =  8.440E-10

      iter #   5 total cpu time :   438.9 secs   av.it.:  15.0
      thresh= 2.905E-06 alpha_mix =  0.700 |ddv_scf|^2 =  2.173E-10

      iter #   6 total cpu time :   448.7 secs   av.it.:  15.0
      thresh= 1.474E-06 alpha_mix =  0.700 |ddv_scf|^2 =  1.232E-11

      iter #   7 total cpu time :   458.5 secs   av.it.:  15.0
      thresh= 3.510E-07 alpha_mix =  0.700 |ddv_scf|^2 =  1.091E-13

      iter #   8 total cpu time :   468.0 secs   av.it.:  15.0
      thresh= 3.303E-08 alpha_mix =  0.700 |ddv_scf|^2 =  6.303E-15

     End of self-consistent calculation

     Convergence has been achieved 


     Representation #  5 mode #   5

     Self-consistent Calculation

      iter #   1 total cpu time :   476.4 secs   av.it.:   9.0
      thresh= 1.000E-02 alpha_mix =  0.700 |ddv_scf|^2 =  6.505E-08

      iter #   2 total cpu time :   489.3 secs   av.it.:  16.0
      thresh= 2.550E-05 alpha_mix =  0.700 |ddv_scf|^2 =  4.010E-08

      iter #   3 total cpu time :   502.3 secs   av.it.:  15.0
      thresh= 2.002E-05 alpha_mix =  0.700 |ddv_scf|^2 =  1.603E-08

      iter #   4 total cpu time :   514.9 secs   av.it.:  14.0
      thresh= 1.266E-05 alpha_mix =  0.700 |ddv_scf|^2 =  8.434E-10

      iter #   5 total cpu time :   526.7 secs   av.it.:  15.0
      thresh= 2.904E-06 alpha_mix =  0.700 |ddv_scf|^2 =  2.224E-10

      iter #   6 total cpu time :   537.9 secs   av.it.:  15.0
      thresh= 1.491E-06 alpha_mix =  0.700 |ddv_scf|^2 =  1.214E-11

      iter #   7 total cpu time :   549.0 secs   av.it.:  15.0
      thresh= 3.484E-07 alpha_mix =  0.700 |ddv_scf|^2 =  1.101E-13

      iter #   8 total cpu time :   560.1 secs   av.it.:  15.0
      thresh= 3.319E-08 alpha_mix =  0.700 |ddv_scf|^2 =  6.319E-15

     End of self-consistent calculation

     Convergence has been achieved 


     Representation #  6 mode #   6

     Self-consistent Calculation

      iter #   1 total cpu time :   568.6 secs   av.it.:   9.0
      thresh= 1.000E-02 alpha_mix =  0.700 |ddv_scf|^2 =  6.508E-08

      iter #   2 total cpu time :   580.5 secs   av.it.:  16.0
      thresh= 2.551E-05 alpha_mix =  0.700 |ddv_scf|^2 =  4.029E-08

      iter #   3 total cpu time :   592.9 secs   av.it.:  15.0
      thresh= 2.007E-05 alpha_mix =  0.700 |ddv_scf|^2 =  1.594E-08

      iter #   4 total cpu time :   604.2 secs   av.it.:  14.0
      thresh= 1.262E-05 alpha_mix =  0.700 |ddv_scf|^2 =  8.611E-10

      iter #   5 total cpu time :   616.2 secs   av.it.:  15.0
      thresh= 2.934E-06 alpha_mix =  0.700 |ddv_scf|^2 =  2.294E-10

      iter #   6 total cpu time :   628.7 secs   av.it.:  15.0
      thresh= 1.515E-06 alpha_mix =  0.700 |ddv_scf|^2 =  1.250E-11

      iter #   7 total cpu time :   640.2 secs   av.it.:  15.0
      thresh= 3.535E-07 alpha_mix =  0.700 |ddv_scf|^2 =  1.074E-13

      iter #   8 total cpu time :   651.1 secs   av.it.:  15.0
      thresh= 3.277E-08 alpha_mix =  0.700 |ddv_scf|^2 =  5.888E-15

     End of self-consistent calculation

     Convergence has been achieved 

     Number of q in the star =    1
     List of q in the star:
          1   0.000000000   0.000000000   0.000000000

          Dielectric constant in cartesian axis 

          (       1.068638831       0.018186287       0.018186287 )
          (       0.018186287       1.068638831       0.018186287 )
          (       0.018186287       0.018186287       1.068638831 )

     Polarizability (a.u.)^3                    Polarizability (A^3)
     18.45      5.00      5.00             2.7340        0.7410        0.7410
      5.00     18.45      5.00             0.7410        2.7340        0.7410
      5.00      5.00     18.45             0.7410        0.7410        2.7340

          Effective charges (d Force / dE) in cartesian axis

           atom      1   C  
      Ex  (        1.03626        0.60077        0.60077 )
      Ey  (        0.60077        1.03626        0.60077 )
      Ez  (        0.60077        0.60077        1.03626 )
           atom      2   O  
      Ex  (       -0.51602       -0.30075       -0.30075 )
      Ey  (       -0.30075       -0.51602       -0.30075 )
      Ez  (       -0.30075       -0.30075       -0.51602 )
           atom      3   O  
      Ex  (       -0.51602       -0.30075       -0.30075 )
      Ey  (       -0.30075       -0.51602       -0.30075 )
      Ez  (       -0.30075       -0.30075       -0.51602 )

     Diagonalizing the dynamical matrix

     q = (    0.000000000   0.000000000   0.000000000 ) 

 **************************************************************************
     freq (    1) =      -0.230420 [THz] =      -7.685982 [cm-1]
     freq (    2) =      -0.230289 [THz] =      -7.681622 [cm-1]
     freq (    3) =      -0.030754 [THz] =      -1.025858 [cm-1]
     freq (    4) =       2.728033 [THz] =      90.997385 [cm-1]
     freq (    5) =       2.728521 [THz] =      91.013678 [cm-1]
     freq (    6) =      18.477662 [THz] =     616.348469 [cm-1]
     freq (    7) =      18.477765 [THz] =     616.351912 [cm-1]
     freq (    8) =      37.554213 [THz] =    1252.673717 [cm-1]
     freq (    9) =      66.534371 [THz] =    2219.347719 [cm-1]
 **************************************************************************

     Mode symmetry, D_3d (-3m)  point group:

     freq (  1 -  1) =         -7.7  [cm-1]   -->   ?
     freq (  2 -  2) =         -7.7  [cm-1]   -->   ?
     freq (  3 -  3) =         -1.0  [cm-1]   -->   ?
     freq (  4 -  4) =         91.0  [cm-1]   -->   ?
     freq (  5 -  5) =         91.0  [cm-1]   -->   ?
     freq (  6 -  7) =        616.3  [cm-1]   --> E_u  L_3'       I  
     freq (  8 -  8) =       1252.7  [cm-1]   --> A_1g L_1        R  
     freq (  9 -  9) =       2219.3  [cm-1]   --> A_2u L_2'       I  

     PHONON       : 10m41.78s CPU    10m51.95s WALL

     INITIALIZATION: 
     phq_setup    :      1.35s CPU      1.38s WALL (       1 calls)
     phq_init     :     56.68s CPU     56.76s WALL (       1 calls)

     phq_init     :     56.68s CPU     56.76s WALL (       1 calls)
     init_vloc    :      0.79s CPU      0.79s WALL (       1 calls)
     init_us_1    :      0.06s CPU      0.06s WALL (       1 calls)

     DIELECTRIC CONSTANT AND EFFECTIVE CHARGES:
     solve_e      :    315.52s CPU    319.91s WALL (       1 calls)
     dielec       :      0.02s CPU      0.06s WALL (       1 calls)
     zstar_eu     :      6.08s CPU      6.18s WALL (       1 calls)

     DYNAMICAL MATRIX:
     dynmat0      :      4.14s CPU      4.15s WALL (       1 calls)
     phqscf       :    258.90s CPU    264.28s WALL (       1 calls)
     dynmatrix    :      0.07s CPU      0.07s WALL (       1 calls)

     phqscf       :    258.90s CPU    264.28s WALL (       1 calls)
     solve_linter :    257.26s CPU    262.44s WALL (       3 calls)
     drhodv       :      1.62s CPU      1.65s WALL (       3 calls)

     dynmat0      :      4.14s CPU      4.15s WALL (       1 calls)
     dynmat_us    :      3.37s CPU      3.38s WALL (       1 calls)
     d2ionq       :      0.77s CPU      0.77s WALL (       1 calls)

     dynmat_us    :      3.37s CPU      3.38s WALL (       1 calls)

     phqscf       :    258.90s CPU    264.28s WALL (       1 calls)
     solve_linter :    257.26s CPU    262.44s WALL (       3 calls)

     solve_linter :    257.26s CPU    262.44s WALL (       3 calls)
     dvqpsi_us    :      7.73s CPU      7.80s WALL (      12 calls)
     ortho        :      0.75s CPU      0.75s WALL (      48 calls)
     cgsolve      :    463.39s CPU    465.37s WALL (      48 calls)
     incdrhoscf   :     26.21s CPU     26.34s WALL (      45 calls)
     vpsifft      :      9.57s CPU      9.67s WALL (      21 calls)
     dv_of_drho   :     51.29s CPU     53.74s WALL (      45 calls)
     mix_pot      :      5.11s CPU      8.81s WALL (      31 calls)

     dvqpsi_us    :      7.73s CPU      7.80s WALL (      12 calls)
     dvqpsi_us_on :      0.10s CPU      0.10s WALL (      12 calls)

     cgsolve      :    463.39s CPU    465.37s WALL (      48 calls)
     ch_psi       :    442.99s CPU    444.78s WALL (     872 calls)

     ch_psi       :    442.99s CPU    444.78s WALL (     872 calls)
     h_psiq       :    415.46s CPU    417.05s WALL (     872 calls)
     last         :     25.05s CPU     25.16s WALL (     872 calls)

     h_psiq       :    415.46s CPU    417.05s WALL (     872 calls)
     firstfft     :    183.03s CPU    183.80s WALL (    5705 calls)
     secondfft    :    176.58s CPU    177.21s WALL (    5705 calls)
     add_vuspsi   :      5.37s CPU      5.38s WALL (     872 calls)

     incdrhoscf   :     26.21s CPU     26.34s WALL (      45 calls)


      General routines
     calbec       :      6.94s CPU      6.99s WALL (    1769 calls)
     fft          :     37.24s CPU     37.60s WALL (     509 calls)
     ffts         :      1.69s CPU      1.72s WALL (      39 calls)
     fftw         :    380.35s CPU    381.89s WALL (   12946 calls)
     davcio       :      0.05s CPU      4.08s WALL (     405 calls)
     write_rec    :      0.22s CPU      1.05s WALL (      34 calls)


     PHONON       : 10m41.78s CPU    10m51.95s WALL


   This run was terminated on:  19: 9:51   6Jul2014            

=------------------------------------------------------------------------------=
   JOB DONE.
=------------------------------------------------------------------------------=
