ANIMSTEPS  27
CRYSTAL
PRIMVEC
    4.838753214    0.000000000    0.000000000
   -2.419376607    4.190483206    0.000000000
    0.000000000    0.000000000    5.335416393
PRIMCOORD  1
      9   1
   Si     2.22872   0.00000   3.55694   0.00000   0.00004   0.03347
   Si    -1.11436   1.93013   1.77847  -0.00003  -0.00002   0.03347
   Si    -1.11436  -1.93013  -0.00000   0.00003  -0.00002   0.03347
   O      1.28824   1.18284  -1.20990  -0.00016  -0.00001   0.03326
   O     -1.66849   0.52423   2.34705   0.00009  -0.00013   0.03326
   O      0.38025  -1.70707   0.56858   0.00007   0.00014   0.03326
   O      0.38025   1.70707   1.20990  -0.00007   0.00014   0.03326
   O      1.28824  -1.18284  -2.34705   0.00016  -0.00001   0.03326
   O     -1.66849  -0.52423  -0.56858  -0.00009  -0.00013   0.03326
PRIMCOORD  2
      9   1
   Si     2.22872   0.00000   3.55694  -0.03105   0.00000   0.00000
   Si    -1.11436   1.93013   1.77847  -0.03440  -0.00193   0.00039
   Si    -1.11436  -1.93013  -0.00000  -0.03440   0.00193  -0.00039
   O      1.28824   1.18284  -1.20990  -0.02626   0.00572  -0.00431
   O     -1.66849   0.52423   2.34705  -0.03215  -0.00444  -0.00282
   O      0.38025  -1.70707   0.56858  -0.03801   0.00574   0.00713
   O      0.38025   1.70707   1.20990  -0.03801  -0.00574  -0.00713
   O      1.28824  -1.18284  -2.34705  -0.02626  -0.00572   0.00431
   O     -1.66849  -0.52423  -0.56858  -0.03215   0.00444   0.00282
PRIMCOORD  3
      9   1
   Si     2.22872   0.00000   3.55694  -0.00000  -0.03551  -0.00045
   Si    -1.11436   1.93013   1.77847  -0.00193  -0.03217   0.00022
   Si    -1.11436  -1.93013  -0.00000   0.00193  -0.03217   0.00022
   O      1.28824   1.18284  -1.20990   0.00104  -0.03802   0.00574
   O     -1.66849   0.52423   2.34705  -0.00912  -0.03213  -0.00660
   O      0.38025  -1.70707   0.56858   0.00106  -0.02627   0.00086
   O      0.38025   1.70707   1.20990  -0.00106  -0.02627   0.00086
   O      1.28824  -1.18284  -2.34705  -0.00104  -0.03802   0.00574
   O     -1.66849  -0.52423  -0.56858   0.00912  -0.03213  -0.00660
PRIMCOORD  4
      9   1
   Si     2.22872   0.00000   3.55694  -0.00000  -0.00352  -0.00542
   Si    -1.11436   1.93013   1.77847  -0.00770   0.00981   0.00271
   Si    -1.11436  -1.93013  -0.00000   0.00770   0.00981   0.00271
   O      1.28824   1.18284  -1.20990   0.00549  -0.01685   0.02711
   O     -1.66849   0.52423   2.34705  -0.03828   0.00443  -0.03485
   O      0.38025  -1.70707   0.56858   0.00203   0.03169   0.00773
   O      0.38025   1.70707   1.20990  -0.00203   0.03169   0.00773
   O      1.28824  -1.18284  -2.34705  -0.00549  -0.01685   0.02711
   O     -1.66849  -0.52423  -0.56858   0.03828   0.00443  -0.03485
PRIMCOORD  5
      9   1
   Si     2.22872   0.00000   3.55694  -0.01425   0.00000   0.00000
   Si    -1.11436   1.93013   1.77847  -0.00092   0.00770  -0.00470
   Si    -1.11436  -1.93013  -0.00000  -0.00092  -0.00770   0.00470
   O      1.28824   1.18284  -1.20990  -0.02970  -0.02599   0.02458
   O     -1.66849   0.52423   2.34705  -0.00842   0.01777   0.01119
   O      0.38025  -1.70707   0.56858   0.01884  -0.02253  -0.03577
   O      0.38025   1.70707   1.20990   0.01884   0.02253   0.03577
   O      1.28824  -1.18284  -2.34705  -0.02970   0.02599  -0.02458
   O     -1.66849  -0.52423  -0.56858  -0.00842  -0.01777  -0.01119
PRIMCOORD  6
      9   1
   Si     2.22872   0.00000   3.55694  -0.02543  -0.00000  -0.00000
   Si    -1.11436   1.93013   1.77847   0.01272  -0.02203   0.00000
   Si    -1.11436  -1.93013  -0.00000   0.01272   0.02203  -0.00000
   O      1.28824   1.18284  -1.20990  -0.00518   0.03134  -0.01828
   O     -1.66849   0.52423   2.34705  -0.02455  -0.02015  -0.01828
   O      0.38025  -1.70707   0.56858   0.02973  -0.01119  -0.01828
   O      0.38025   1.70707   1.20990   0.02973   0.01119   0.01828
   O      1.28824  -1.18284  -2.34705  -0.00518  -0.03134   0.01828
   O     -1.66849  -0.52423  -0.56858  -0.02455   0.02015   0.01828
PRIMCOORD  7
      9   1
   Si     2.22872   0.00000   3.55694   0.00056   0.00000   0.00000
   Si    -1.11436   1.93013   1.77847  -0.00785  -0.00486   0.01686
   Si    -1.11436  -1.93013  -0.00000  -0.00785   0.00486  -0.01686
   O      1.28824   1.18284  -1.20990  -0.01265   0.00331  -0.01958
   O     -1.66849   0.52423   2.34705   0.03285  -0.01912   0.01740
   O      0.38025  -1.70707   0.56858  -0.00932  -0.04730   0.00218
   O      0.38025   1.70707   1.20990  -0.00932   0.04730  -0.00218
   O      1.28824  -1.18284  -2.34705  -0.01265  -0.00331   0.01958
   O     -1.66849  -0.52423  -0.56858   0.03285   0.01912  -0.01740
PRIMCOORD  8
      9   1
   Si     2.22872   0.00000   3.55694   0.00000  -0.01066  -0.01947
   Si    -1.11436   1.93013   1.77847  -0.00486  -0.00224   0.00973
   Si    -1.11436  -1.93013  -0.00000   0.00486  -0.00224   0.00973
   O      1.28824   1.18284  -1.20990   0.04538   0.01990  -0.00879
   O     -1.66849   0.52423   2.34705   0.02296  -0.02559  -0.01256
   O      0.38025  -1.70707   0.56858  -0.00523   0.01657   0.02135
   O      0.38025   1.70707   1.20990   0.00523   0.01657   0.02135
   O      1.28824  -1.18284  -2.34705  -0.04538   0.01990  -0.00879
   O     -1.66849  -0.52423  -0.56858  -0.02296  -0.02559  -0.01256
PRIMCOORD  9
      9   1
   Si     2.22872   0.00000   3.55694   0.03153   0.00000   0.00000
   Si    -1.11436   1.93013   1.77847  -0.01577   0.02731   0.00000
   Si    -1.11436  -1.93013  -0.00000  -0.01577  -0.02731  -0.00000
   O      1.28824   1.18284  -1.20990   0.01769   0.00917  -0.02779
   O     -1.66849   0.52423   2.34705  -0.01679   0.01073  -0.02779
   O      0.38025  -1.70707   0.56858  -0.00090  -0.01990  -0.02779
   O      0.38025   1.70707   1.20990  -0.00090   0.01990   0.02779
   O      1.28824  -1.18284  -2.34705   0.01769  -0.00917   0.02779
   O     -1.66849  -0.52423  -0.56858  -0.01679  -0.01073   0.02779
PRIMCOORD 10
      9   1
   Si     2.22872   0.00000   3.55694   0.00000  -0.00589  -0.01519
   Si    -1.11436   1.93013   1.77847   0.00510   0.00294  -0.01519
   Si    -1.11436  -1.93013  -0.00000  -0.00510   0.00294  -0.01519
   O      1.28824   1.18284  -1.20990  -0.02073  -0.03044   0.01332
   O     -1.66849   0.52423   2.34705   0.03673  -0.00273   0.01332
   O      0.38025  -1.70707   0.56858  -0.01600   0.03317   0.01332
   O      0.38025   1.70707   1.20990   0.01600   0.03317   0.01332
   O      1.28824  -1.18284  -2.34705   0.02073  -0.03044   0.01332
   O     -1.66849  -0.52423  -0.56858  -0.03673  -0.00273   0.01332
PRIMCOORD 11
      9   1
   Si     2.22872   0.00000   3.55694  -0.00000  -0.03224   0.02122
   Si    -1.11436   1.93013   1.77847  -0.01869   0.00013  -0.01061
   Si    -1.11436  -1.93013  -0.00000   0.01869   0.00013  -0.01061
   O      1.28824   1.18284  -1.20990   0.02493  -0.00227   0.00049
   O     -1.66849   0.52423   2.34705  -0.00089   0.00895   0.03100
   O      0.38025  -1.70707   0.56858   0.02174   0.02570  -0.03149
   O      0.38025   1.70707   1.20990  -0.02174   0.02570  -0.03149
   O      1.28824  -1.18284  -2.34705  -0.02493  -0.00227   0.00049
   O     -1.66849  -0.52423  -0.56858   0.00089   0.00895   0.03100
PRIMCOORD 12
      9   1
   Si     2.22872   0.00000   3.55694   0.01092  -0.00000   0.00000
   Si    -1.11436   1.93013   1.77847  -0.02145  -0.01869  -0.01838
   Si    -1.11436  -1.93013  -0.00000  -0.02145   0.01869   0.01838
   O      1.28824   1.18284  -1.20990   0.02386  -0.00559   0.03608
   O     -1.66849   0.52423   2.34705   0.01264  -0.03141  -0.01846
   O      0.38025  -1.70707   0.56858  -0.00411  -0.00878  -0.01761
   O      0.38025   1.70707   1.20990  -0.00411   0.00878   0.01761
   O      1.28824  -1.18284  -2.34705   0.02386   0.00559  -0.03608
   O     -1.66849  -0.52423  -0.56858   0.01264   0.03141   0.01846
PRIMCOORD 13
      9   1
   Si     2.22872   0.00000   3.55694  -0.01896   0.00000  -0.00000
   Si    -1.11436   1.93013   1.77847  -0.01633   0.00152  -0.01327
   Si    -1.11436  -1.93013  -0.00000  -0.01633  -0.00152   0.01327
   O      1.28824   1.18284  -1.20990   0.01773   0.02775  -0.01234
   O     -1.66849   0.52423   2.34705   0.02114   0.01460   0.03783
   O      0.38025  -1.70707   0.56858   0.00805   0.01822  -0.02550
   O      0.38025   1.70707   1.20990   0.00805  -0.01822   0.02550
   O      1.28824  -1.18284  -2.34705   0.01773  -0.02775   0.01234
   O     -1.66849  -0.52423  -0.56858   0.02114  -0.01460  -0.03783
PRIMCOORD 14
      9   1
   Si     2.22872   0.00000   3.55694   0.00000   0.01545  -0.01532
   Si    -1.11436   1.93013   1.77847  -0.00152   0.01808   0.00766
   Si    -1.11436  -1.93013  -0.00000   0.00152   0.01808   0.00766
   O      1.28824   1.18284  -1.20990   0.01263  -0.01355   0.03656
   O     -1.66849   0.52423   2.34705   0.02578  -0.01014  -0.00760
   O      0.38025  -1.70707   0.56858   0.02216  -0.02323  -0.02896
   O      0.38025   1.70707   1.20990  -0.02216  -0.02323  -0.02896
   O      1.28824  -1.18284  -2.34705  -0.01263  -0.01355   0.03656
   O     -1.66849  -0.52423  -0.56858  -0.02578  -0.01014  -0.00760
PRIMCOORD 15
      9   1
   Si     2.22872   0.00000   3.55694   0.00989  -0.00000  -0.00000
   Si    -1.11436   1.93013   1.77847  -0.00494   0.00856  -0.00000
   Si    -1.11436  -1.93013  -0.00000  -0.00494  -0.00856   0.00000
   O      1.28824   1.18284  -1.20990  -0.03608  -0.00814  -0.01580
   O     -1.66849   0.52423   2.34705   0.02509  -0.02718  -0.01580
   O      0.38025  -1.70707   0.56858   0.01099   0.03532  -0.01580
   O      0.38025   1.70707   1.20990   0.01099  -0.03532   0.01580
   O      1.28824  -1.18284  -2.34705  -0.03608   0.00814   0.01580
   O     -1.66849  -0.52423  -0.56858   0.02509   0.02718   0.01580
PRIMCOORD 16
      9   1
   Si     2.22872   0.00000   3.55694   0.00000   0.01883   0.01534
   Si    -1.11436   1.93013   1.77847  -0.01631  -0.00942   0.01534
   Si    -1.11436  -1.93013  -0.00000   0.01631  -0.00942   0.01534
   O      1.28824   1.18284  -1.20990  -0.03368   0.00701  -0.01372
   O     -1.66849   0.52423   2.34705   0.01077  -0.03267  -0.01372
   O      0.38025  -1.70707   0.56858   0.02291   0.02566  -0.01372
   O      0.38025   1.70707   1.20990  -0.02291   0.02566  -0.01372
   O      1.28824  -1.18284  -2.34705   0.03368   0.00701  -0.01372
   O     -1.66849  -0.52423  -0.56858  -0.01077  -0.03267  -0.01372
PRIMCOORD 17
      9   1
   Si     2.22872   0.00000   3.55694  -0.00836  -0.00000  -0.00000
   Si    -1.11436   1.93013   1.77847   0.01478   0.01336  -0.04633
   Si    -1.11436  -1.93013  -0.00000   0.01478  -0.01336   0.04633
   O      1.28824   1.18284  -1.20990  -0.02122   0.02132  -0.00167
   O     -1.66849   0.52423   2.34705   0.01743   0.00564  -0.01556
   O      0.38025  -1.70707   0.56858  -0.01548  -0.01999   0.01723
   O      0.38025   1.70707   1.20990  -0.01548   0.01999  -0.01723
   O      1.28824  -1.18284  -2.34705  -0.02122  -0.02132   0.00167
   O     -1.66849  -0.52423  -0.56858   0.01743  -0.00564   0.01556
PRIMCOORD 18
      9   1
   Si     2.22872   0.00000   3.55694   0.00000  -0.02250  -0.05350
   Si    -1.11436   1.93013   1.77847  -0.01336   0.00064   0.02675
   Si    -1.11436  -1.93013  -0.00000   0.01336   0.00064   0.02675
   O      1.28824   1.18284  -1.20990  -0.01667  -0.00837  -0.01893
   O     -1.66849   0.52423   2.34705  -0.00099   0.03028   0.01091
   O      0.38025  -1.70707   0.56858   0.02464  -0.00263   0.00802
   O      0.38025   1.70707   1.20990  -0.02464  -0.00263   0.00802
   O      1.28824  -1.18284  -2.34705   0.01667  -0.00837  -0.01893
   O     -1.66849  -0.52423  -0.56858   0.00099   0.03028   0.01091
PRIMCOORD 19
      9   1
   Si     2.22872   0.00000   3.55694  -0.00000  -0.04858   0.01706
   Si    -1.11436   1.93013   1.77847   0.04207   0.02429   0.01706
   Si    -1.11436  -1.93013  -0.00000  -0.04207   0.02429   0.01706
   O      1.28824   1.18284  -1.20990  -0.01059   0.00139  -0.01507
   O     -1.66849   0.52423   2.34705   0.00409  -0.00987  -0.01507
   O      0.38025  -1.70707   0.56858   0.00650   0.00847  -0.01507
   O      0.38025   1.70707   1.20990  -0.00650   0.00847  -0.01507
   O      1.28824  -1.18284  -2.34705   0.01059   0.00139  -0.01507
   O     -1.66849  -0.52423  -0.56858  -0.00409  -0.00987  -0.01507
PRIMCOORD 20
      9   1
   Si     2.22872   0.00000   3.55694  -0.00000  -0.02698   0.01536
   Si    -1.11436   1.93013   1.77847  -0.03590   0.03519  -0.00768
   Si    -1.11436  -1.93013  -0.00000   0.03590   0.03519  -0.00768
   O      1.28824   1.18284  -1.20990  -0.01635   0.00065  -0.00942
   O     -1.66849   0.52423   2.34705   0.00514  -0.01437  -0.00761
   O      0.38025  -1.70707   0.56858  -0.01861  -0.02547   0.01702
   O      0.38025   1.70707   1.20990   0.01861  -0.02547   0.01702
   O      1.28824  -1.18284  -2.34705   0.01635   0.00065  -0.00942
   O     -1.66849  -0.52423  -0.56858  -0.00514  -0.01437  -0.00761
PRIMCOORD 21
      9   1
   Si     2.22872   0.00000   3.55694   0.05592  -0.00000   0.00000
   Si    -1.11436   1.93013   1.77847  -0.00626  -0.03590  -0.01330
   Si    -1.11436  -1.93013  -0.00000  -0.00626   0.03590   0.01330
   O      1.28824   1.18284  -1.20990  -0.02678   0.00353  -0.01422
   O     -1.66849   0.52423   2.34705  -0.01176   0.02502   0.01526
   O      0.38025  -1.70707   0.56858  -0.00066   0.00127  -0.00104
   O      0.38025   1.70707   1.20990  -0.00066  -0.00127   0.00104
   O      1.28824  -1.18284  -2.34705  -0.02678  -0.00353   0.01422
   O     -1.66849  -0.52423  -0.56858  -0.01176  -0.02502  -0.01526
PRIMCOORD 22
      9   1
   Si     2.22872   0.00000   3.55694   0.00000   0.02656  -0.00924
   Si    -1.11436   1.93013   1.77847   0.00481   0.01823   0.00462
   Si    -1.11436  -1.93013  -0.00000  -0.00481   0.01823   0.00462
   O      1.28824   1.18284  -1.20990   0.01432  -0.03124  -0.02806
   O     -1.66849   0.52423   2.34705  -0.02461  -0.02810   0.02900
   O      0.38025  -1.70707   0.56858  -0.00243   0.00404  -0.00093
   O      0.38025   1.70707   1.20990   0.00243   0.00404  -0.00093
   O      1.28824  -1.18284  -2.34705  -0.01432  -0.03124  -0.02806
   O     -1.66849  -0.52423  -0.56858   0.02461  -0.02810   0.02900
PRIMCOORD 23
      9   1
   Si     2.22872   0.00000   3.55694  -0.01545   0.00000  -0.00000
   Si    -1.11436   1.93013   1.77847  -0.02379  -0.00481  -0.00800
   Si    -1.11436  -1.93013  -0.00000  -0.02379   0.00481   0.00800
   O      1.28824   1.18284  -1.20990   0.00563  -0.02280  -0.01728
   O     -1.66849   0.52423   2.34705   0.00877   0.01613  -0.01566
   O      0.38025  -1.70707   0.56858   0.04091  -0.00605   0.03294
   O      0.38025   1.70707   1.20990   0.04091   0.00605  -0.03294
   O      1.28824  -1.18284  -2.34705   0.00563   0.02280   0.01728
   O     -1.66849  -0.52423  -0.56858   0.00877  -0.01613   0.01566
PRIMCOORD 24
      9   1
   Si     2.22872   0.00000   3.55694  -0.00000   0.00943   0.02113
   Si    -1.11436   1.93013   1.77847  -0.00816  -0.00471   0.02113
   Si    -1.11436  -1.93013  -0.00000   0.00816  -0.00471   0.02113
   O      1.28824   1.18284  -1.20990   0.01463  -0.02896  -0.01861
   O     -1.66849   0.52423   2.34705   0.01777   0.02715  -0.01861
   O      0.38025  -1.70707   0.56858  -0.03239   0.00181  -0.01861
   O      0.38025   1.70707   1.20990   0.03239   0.00181  -0.01861
   O      1.28824  -1.18284  -2.34705  -0.01463  -0.02896  -0.01861
   O     -1.66849  -0.52423  -0.56858  -0.01777   0.02715  -0.01861
PRIMCOORD 25
      9   1
   Si     2.22872   0.00000   3.55694   0.02176   0.00000   0.00000
   Si    -1.11436   1.93013   1.77847  -0.01088   0.01884  -0.00000
   Si    -1.11436  -1.93013  -0.00000  -0.01088  -0.01884   0.00000
   O      1.28824   1.18284  -1.20990  -0.01125   0.02737   0.02354
   O     -1.66849   0.52423   2.34705  -0.01808  -0.02343   0.02354
   O      0.38025  -1.70707   0.56858   0.02933  -0.00394   0.02354
   O      0.38025   1.70707   1.20990   0.02933   0.00394  -0.02354
   O      1.28824  -1.18284  -2.34705  -0.01125  -0.02737  -0.02354
   O     -1.66849  -0.52423  -0.56858  -0.01808   0.02343  -0.02354
PRIMCOORD 26
      9   1
   Si     2.22872   0.00000   3.55694   0.00000   0.00928   0.02356
   Si    -1.11436   1.93013   1.77847   0.00389   0.00255  -0.01178
   Si    -1.11436  -1.93013  -0.00000  -0.00389   0.00255  -0.01178
   O      1.28824   1.18284  -1.20990   0.01108  -0.02150  -0.01712
   O     -1.66849   0.52423   2.34705   0.01362   0.01463  -0.01551
   O      0.38025  -1.70707   0.56858   0.04364  -0.00563   0.03263
   O      0.38025   1.70707   1.20990  -0.04364  -0.00563   0.03263
   O      1.28824  -1.18284  -2.34705  -0.01108  -0.02150  -0.01712
   O     -1.66849  -0.52423  -0.56858  -0.01362   0.01463  -0.01551
PRIMCOORD 27
      9   1
   Si     2.22872   0.00000   3.55694  -0.00031   0.00000   0.00000
   Si    -1.11436   1.93013   1.77847  -0.00704  -0.00389   0.02041
   Si    -1.11436  -1.93013  -0.00000  -0.00704   0.00389  -0.02041
   O      1.28824   1.18284  -1.20990  -0.01317   0.03447   0.02779
   O     -1.66849   0.52423   2.34705   0.02296   0.03194  -0.02873
   O      0.38025  -1.70707   0.56858   0.00270   0.00192   0.00093
   O      0.38025   1.70707   1.20990   0.00270  -0.00192  -0.00093
   O      1.28824  -1.18284  -2.34705  -0.01317  -0.03447  -0.02779
   O     -1.66849  -0.52423  -0.56858   0.02296  -0.03194   0.02873
