[Molden Format]
[FREQ]
   20.52
   57.17
   57.17
  151.38
  151.38
  244.50
  286.46
  286.46
  344.44
  345.79
  384.99
  384.99
  448.26
  448.26
  481.79
  502.78
  693.59
  693.59
  763.21
  796.48
  796.48
 1046.94
 1046.94
 1058.16
 1067.13
 1126.17
 1126.17
[FR-COORD]
   Si          4.21167        0.00000        6.72165
   Si         -2.10584        3.64742        3.36083
   Si         -2.10584       -3.64742       -0.00000
   O           2.43442        2.23524       -2.28637
   O          -3.15298        0.99065        4.43528
   O           0.71856       -3.22589        1.07445
   O           0.71856        3.22589        2.28637
   O           2.43442       -2.23524       -4.43528
   O          -3.15298       -0.99065       -1.07445
[FR-NORM-COORD]
 vibration     1
   0.00000   0.00035   0.33471
  -0.00031  -0.00018   0.33471
   0.00031  -0.00018   0.33471
  -0.00159  -0.00009   0.33264
   0.00087  -0.00133   0.33264
   0.00072   0.00142   0.33264
  -0.00072   0.00142   0.33264
   0.00159  -0.00009   0.33264
  -0.00087  -0.00133   0.33264
 vibration     2
  -0.31050   0.00000   0.00000
  -0.34397  -0.01932   0.00385
  -0.34397   0.01932  -0.00385
  -0.26264   0.05722  -0.04305
  -0.32151  -0.04441  -0.02822
  -0.38009   0.05739   0.07127
  -0.38009  -0.05739  -0.07127
  -0.26264  -0.05722   0.04305
  -0.32151   0.04441   0.02822
 vibration     3
  -0.00000  -0.35513  -0.00445
  -0.01932  -0.32166   0.00223
   0.01932  -0.32166   0.00223
   0.01042  -0.38019   0.05744
  -0.09121  -0.32132  -0.06601
   0.01059  -0.26273   0.00856
  -0.01059  -0.26273   0.00856
  -0.01042  -0.38019   0.05744
   0.09121  -0.32132  -0.06601
 vibration     4
  -0.00000  -0.03521  -0.05423
  -0.07697   0.09810   0.02711
   0.07697   0.09810   0.02711
   0.05492  -0.16846   0.27111
  -0.38277   0.04426  -0.34845
   0.02030   0.31694   0.07734
  -0.02030   0.31694   0.07734
  -0.05492  -0.16846   0.27111
   0.38277   0.04426  -0.34845
 vibration     5
  -0.14254   0.00000   0.00000
  -0.00923   0.07697  -0.04696
  -0.00923  -0.07697   0.04696
  -0.29696  -0.25995   0.24583
  -0.08424   0.17773   0.11187
   0.18845  -0.22533  -0.35770
   0.18845   0.22533   0.35770
  -0.29696   0.25995  -0.24583
  -0.08424  -0.17773  -0.11187
 vibration     6
  -0.25435  -0.00000  -0.00000
   0.12717  -0.22027   0.00000
   0.12717   0.22027  -0.00000
  -0.05178   0.31340  -0.18281
  -0.24552  -0.20155  -0.18281
   0.29730  -0.11185  -0.18281
   0.29730   0.11185   0.18281
  -0.05178  -0.31340   0.18281
  -0.24552   0.20155   0.18281
 vibration     7
   0.00561   0.00000   0.00000
  -0.07851  -0.04857   0.16858
  -0.07851   0.04857  -0.16858
  -0.12646   0.03306  -0.19576
   0.32847  -0.19118   0.17398
  -0.09319  -0.47304   0.02178
  -0.09319   0.47304  -0.02178
  -0.12646  -0.03306   0.19576
   0.32847   0.19118  -0.17398
 vibration     8
   0.00000  -0.10656  -0.19466
  -0.04857  -0.02243   0.09733
   0.04857  -0.02243   0.09733
   0.45383   0.19901  -0.08787
   0.22959  -0.25592  -0.12560
  -0.05227   0.16574   0.21347
   0.05227   0.16574   0.21347
  -0.45383   0.19901  -0.08787
  -0.22959  -0.25592  -0.12560
 vibration     9
   0.31532   0.00000   0.00000
  -0.15766   0.27307   0.00000
  -0.15766  -0.27307  -0.00000
   0.17688   0.09171  -0.27795
  -0.16786   0.10733  -0.27795
  -0.00902  -0.19904  -0.27795
  -0.00902   0.19904   0.27795
   0.17688  -0.09171   0.27795
  -0.16786  -0.10733   0.27795
 vibration    10
   0.00000  -0.05889  -0.15193
   0.05100   0.02945  -0.15193
  -0.05100   0.02945  -0.15193
  -0.20730  -0.30444   0.13317
   0.36730  -0.02731   0.13317
  -0.16000   0.33175   0.13317
   0.16000   0.33175   0.13317
   0.20730  -0.30444   0.13317
  -0.36730  -0.02731   0.13317
 vibration    11
  -0.00000  -0.32236   0.21222
  -0.18687   0.00130  -0.10611
   0.18687   0.00130  -0.10611
   0.24933  -0.02266   0.00491
  -0.00887   0.08952   0.30996
   0.21738   0.25704  -0.31488
  -0.21738   0.25704  -0.31488
  -0.24933  -0.02266   0.00491
   0.00887   0.08952   0.30996
 vibration    12
   0.10919  -0.00000   0.00000
  -0.21447  -0.18687  -0.18379
  -0.21447   0.18687   0.18379
   0.23859  -0.05590   0.36075
   0.12641  -0.31410  -0.18463
  -0.04111  -0.08785  -0.17612
  -0.04111   0.08785   0.17612
   0.23859   0.05590  -0.36075
   0.12641   0.31410   0.18463
 vibration    13
  -0.18957   0.00000  -0.00000
  -0.16325   0.01520  -0.13266
  -0.16325  -0.01520   0.13266
   0.17732   0.27754  -0.12335
   0.21143   0.14603   0.37833
   0.08049   0.18224  -0.25498
   0.08049  -0.18224   0.25498
   0.17732  -0.27754   0.12335
   0.21143  -0.14603  -0.37833
 vibration    14
   0.00000   0.15448  -0.15319
  -0.01520   0.18080   0.07659
   0.01520   0.18080   0.07659
   0.12634  -0.13551   0.36564
   0.25784  -0.10139  -0.07600
   0.22163  -0.23234  -0.28964
  -0.22163  -0.23234  -0.28964
  -0.12634  -0.13551   0.36564
  -0.25784  -0.10139  -0.07600
 vibration    15
   0.09887  -0.00000  -0.00000
  -0.04943   0.08562  -0.00000
  -0.04943  -0.08562   0.00000
  -0.36082  -0.08137  -0.15802
   0.25087  -0.27179  -0.15802
   0.10994   0.35316  -0.15802
   0.10994  -0.35316   0.15802
  -0.36082   0.08137   0.15802
   0.25087   0.27179   0.15802
 vibration    16
   0.00000   0.18831   0.15338
  -0.16308  -0.09415   0.15338
   0.16308  -0.09415   0.15338
  -0.33678   0.07014  -0.13723
   0.10765  -0.32673  -0.13723
   0.22913   0.25659  -0.13723
  -0.22913   0.25659  -0.13723
   0.33678   0.07014  -0.13723
  -0.10765  -0.32673  -0.13723
 vibration    17
  -0.08359  -0.00000  -0.00000
   0.14784   0.13362  -0.46328
   0.14784  -0.13362   0.46328
  -0.21225   0.21323  -0.01668
   0.17427   0.05643  -0.15560
  -0.15479  -0.19990   0.17228
  -0.15479   0.19990  -0.17228
  -0.21225  -0.21323   0.01668
   0.17427  -0.05643   0.15560
 vibration    18
   0.00000  -0.22499  -0.53495
  -0.13362   0.00645   0.26748
   0.13362   0.00645   0.26748
  -0.16673  -0.08374  -0.18930
  -0.00992   0.30278   0.10910
   0.24641  -0.02628   0.08020
  -0.24641  -0.02628   0.08020
   0.16673  -0.08374  -0.18930
   0.00992   0.30278   0.10910
 vibration    19
  -0.00000  -0.48577   0.17061
   0.42069   0.24289   0.17061
  -0.42069   0.24289   0.17061
  -0.10588   0.01391  -0.15073
   0.04089  -0.09865  -0.15073
   0.06499   0.08474  -0.15073
  -0.06499   0.08474  -0.15073
   0.10588   0.01391  -0.15073
  -0.04089  -0.09865  -0.15073
 vibration    20
  -0.00000  -0.26980   0.15356
  -0.35896   0.35193  -0.07678
   0.35896   0.35193  -0.07678
  -0.16346   0.00649  -0.09416
   0.05142  -0.14373  -0.07606
  -0.18611  -0.25472   0.17022
   0.18611  -0.25472   0.17022
   0.16346   0.00649  -0.09416
  -0.05142  -0.14373  -0.07606
 vibration    21
   0.55918  -0.00000   0.00000
  -0.06256  -0.35896  -0.13299
  -0.06256   0.35896   0.13299
  -0.26780   0.03531  -0.14219
  -0.11758   0.25019   0.15264
  -0.00659   0.01266  -0.01045
  -0.00659  -0.01266   0.01045
  -0.26780  -0.03531   0.14219
  -0.11758  -0.25019  -0.15264
 vibration    22
   0.00000   0.26564  -0.09241
   0.04813   0.18227   0.04621
  -0.04813   0.18227   0.04621
   0.14319  -0.31242  -0.28060
  -0.24609  -0.28104   0.28995
  -0.02427   0.04039  -0.00935
   0.02427   0.04039  -0.00935
  -0.14319  -0.31242  -0.28060
   0.24609  -0.28104   0.28995
 vibration    23
  -0.15448   0.00000  -0.00000
  -0.23785  -0.04813  -0.08003
  -0.23785   0.04813   0.08003
   0.05629  -0.22797  -0.17280
   0.08767   0.16131  -0.15661
   0.40911  -0.06051   0.32941
   0.40911   0.06051  -0.32941
   0.05629   0.22797   0.17280
   0.08767  -0.16131   0.15661
 vibration    24
  -0.00000   0.09425   0.21134
  -0.08162  -0.04713   0.21134
   0.08162  -0.04713   0.21134
   0.14626  -0.28958  -0.18612
   0.17766   0.27146  -0.18612
  -0.32392   0.01812  -0.18612
   0.32392   0.01812  -0.18612
  -0.14626  -0.28958  -0.18612
  -0.17766   0.27146  -0.18612
 vibration    25
   0.21760   0.00000   0.00000
  -0.10880   0.18844  -0.00000
  -0.10880  -0.18844   0.00000
  -0.11249   0.27373   0.23540
  -0.18081  -0.23428   0.23540
   0.29330  -0.03945   0.23540
   0.29330   0.03945  -0.23540
  -0.11249  -0.27373  -0.23540
  -0.18081   0.23428  -0.23540
 vibration    26
   0.00000   0.09285   0.23565
   0.03886   0.02554  -0.11782
  -0.03886   0.02554  -0.11782
   0.11084  -0.21497  -0.17122
   0.13617   0.14629  -0.15510
   0.43637  -0.05627   0.32632
  -0.43637  -0.05627   0.32632
  -0.11084  -0.21497  -0.17122
  -0.13617   0.14629  -0.15510
 vibration    27
  -0.00311   0.00000   0.00000
  -0.07041  -0.03886   0.20408
  -0.07041   0.03886  -0.20408
  -0.13167   0.34474   0.27795
   0.22959   0.31941  -0.28725
   0.02703   0.01922   0.00930
   0.02703  -0.01922  -0.00930
  -0.13167  -0.34474  -0.27795
   0.22959  -0.31941   0.28725
