
     Program PWSCF v.5.0        starts on 16Jun2012 at 16:41: 3 

     This program is part of the open-source Quantum ESPRESSO suite
     for quantum simulation of materials; please cite
         "P. Giannozzi et al., J. Phys.:Condens. Matter 21 395502 (2009);
          URL http://www.quantum-espresso.org", 
     in publications or presentations arising from this work. More details at
     http://www.quantum-espresso.org/quote.php

     Parallel version (MPI), running on     4 processors
     K-points division:     npool     =    4

     Current dimensions of program PWSCF are:
     Max number of different atomic species (ntypx) = 10
     Max number of k-points (npk) =  40000
     Max angular momentum in pseudopotentials (lmaxx) =  3
     Waiting for input...
     Reading input from standard input
               file Ni.pbe-nd-rrkjus.UPF: wavefunction(s)  4S renormalized
               file Ni.pbe-nd-rrkjus.UPF: wavefunction(s)  4S renormalized
               file Ni.pbe-nd-rrkjus.UPF: wavefunction(s)  4S renormalized
               file O.pbe-rrkjus.UPF: wavefunction(s)  2S renormalized

     Subspace diagonalization in iterative solution of the eigenvalue problem:
     a serial algorithm will be used

 
     G-vector sticks info
     --------------------
     sticks:   dense  smooth     PW     G-vecs:    dense   smooth      PW
     Sum        2587    1039    301                86547    22075    3479
 


     bravais-lattice index     =            0
     lattice parameter (alat)  =       7.9000  a.u.
     unit-cell volume          =     986.0780 (a.u.)^3
     number of atoms/cell      =           16
     number of atomic types    =            4
     number of electrons       =       128.00
     number of Kohn-Sham states=           77
     kinetic-energy cutoff     =      30.0000  Ry
     charge density cutoff     =     300.0000  Ry
     convergence threshold     =      1.0E-08
     mixing beta               =       0.3000
     number of iterations used =            8  plain     mixing
     Exchange-correlation      =  SLA  PW   PBE  PBE ( 1 4 3 4 0)
     EXX-fraction              =        0.00

     celldm(1)=   7.900000  celldm(2)=   0.000000  celldm(3)=   0.000000
     celldm(4)=   0.000000  celldm(5)=   0.000000  celldm(6)=   0.000000

     crystal axes: (cart. coord. in units of alat)
               a(1) = (   1.000000   1.000000   0.000000 )  
               a(2) = (   1.000000   0.000000   1.000000 )  
               a(3) = (   0.000000   1.000000   1.000000 )  

     reciprocal axes: (cart. coord. in units 2 pi/alat)
               b(1) = (  0.500000  0.500000 -0.500000 )  
               b(2) = (  0.500000 -0.500000  0.500000 )  
               b(3) = ( -0.500000  0.500000  0.500000 )  


     PseudoPot. # 1 for Ni read from file:
     ../pseudo/Ni.pbe-nd-rrkjus.UPF
     MD5 check sum: 8081f0a005c9a5470caab1a58e82ecb2
     Pseudo is Ultrasoft + core correction, Zval = 10.0
     Generated by new atomic code, or converted to UPF format
     Using radial grid of 1203 points,  6 beta functions with: 
                l(1) =   0
                l(2) =   0
                l(3) =   1
                l(4) =   1
                l(5) =   2
                l(6) =   2
     Q(r) pseudized with 0 coefficients 


     PseudoPot. # 2 for Ni read from file:
     ../pseudo/Ni.pbe-nd-rrkjus.UPF
     MD5 check sum: 8081f0a005c9a5470caab1a58e82ecb2
     Pseudo is Ultrasoft + core correction, Zval = 10.0
     Generated by new atomic code, or converted to UPF format
     Using radial grid of 1203 points,  6 beta functions with: 
                l(1) =   0
                l(2) =   0
                l(3) =   1
                l(4) =   1
                l(5) =   2
                l(6) =   2
     Q(r) pseudized with 0 coefficients 


     PseudoPot. # 3 for Ni read from file:
     ../pseudo/Ni.pbe-nd-rrkjus.UPF
     MD5 check sum: 8081f0a005c9a5470caab1a58e82ecb2
     Pseudo is Ultrasoft + core correction, Zval = 10.0
     Generated by new atomic code, or converted to UPF format
     Using radial grid of 1203 points,  6 beta functions with: 
                l(1) =   0
                l(2) =   0
                l(3) =   1
                l(4) =   1
                l(5) =   2
                l(6) =   2
     Q(r) pseudized with 0 coefficients 


     PseudoPot. # 4 for O  read from file:
     ../pseudo/O.pbe-rrkjus.UPF
     MD5 check sum: 390ba29e75625707450f3bd3f0eb6be9
     Pseudo is Ultrasoft, Zval =  6.0
     Generated by new atomic code, or converted to UPF format
     Using radial grid of 1269 points,  4 beta functions with: 
                l(1) =   0
                l(2) =   0
                l(3) =   1
                l(4) =   1
     Q(r) pseudized with 0 coefficients 


     atomic species   valence    mass     pseudopotential
        Ni1           10.00     1.00000     Ni( 1.00)
        Ni2           10.00     1.00000     Ni( 1.00)
        Ni3           10.00     1.00000     Ni( 1.00)
        O1             6.00     1.00000     O ( 1.00)

     Starting magnetic structure 
     atomic species   magnetization
        Ni1          0.500
        Ni2          0.500
        Ni3         -0.500
        O1           0.000
 -----
     simplified LDA+U calculation, Hubbard_lmax = 2
     atomic species  L   Hubbard U  Hubbard alpha
        Ni1          2    0.000000   -0.070000
        Ni2          2    0.000000    0.000000
        Ni3          2    0.000000    0.000000
        O1           1    0.000000    0.000000
 -----

     12 Sym. Ops., with inversion, found



   Cartesian axes

     site n.     atom                  positions (alat units)
         1           Ni1 tau(   1) = (   0.0000000   0.0000000   0.0000000  )
         2           Ni2 tau(   2) = (   1.0000000   0.5000000   0.5000000  )
         3           Ni2 tau(   3) = (   0.5000000   1.0000000   0.5000000  )
         4           Ni2 tau(   4) = (   0.5000000   0.5000000   1.0000000  )
         5           Ni3 tau(   5) = (   0.5000000   0.5000000   0.0000000  )
         6           Ni3 tau(   6) = (   0.5000000   0.0000000   0.5000000  )
         7           Ni3 tau(   7) = (   0.0000000   0.5000000   0.5000000  )
         8           Ni3 tau(   8) = (   1.0000000   1.0000000   1.0000000  )
         9           O1  tau(   9) = (   0.0000000   0.0000000   0.5000000  )
        10           O1  tau(  10) = (   0.5000000   0.5000000   0.5000000  )
        11           O1  tau(  11) = (   0.0000000   0.5000000   1.0000000  )
        12           O1  tau(  12) = (   0.5000000   0.0000000   1.0000000  )
        13           O1  tau(  13) = (   1.0000000   0.5000000   1.0000000  )
        14           O1  tau(  14) = (   0.5000000   1.0000000   1.0000000  )
        15           O1  tau(  15) = (   0.5000000   0.5000000   1.5000000  )
        16           O1  tau(  16) = (   1.0000000   1.0000000   1.5000000  )

     number of k points=    26  gaussian smearing, width (Ry)=  0.0100
                       cart. coord. in units 2pi/alat
        k(    1) = (   0.0000000   0.0000000   0.0000000), wk =   0.0156250
        k(    2) = (  -0.1250000   0.1250000   0.1250000), wk =   0.0937500
        k(    3) = (   0.2500000  -0.2500000  -0.2500000), wk =   0.0468750
        k(    4) = (   0.0000000   0.0000000   0.2500000), wk =   0.0937500
        k(    5) = (   0.3750000  -0.3750000  -0.1250000), wk =   0.1875000
        k(    6) = (   0.2500000  -0.2500000   0.0000000), wk =   0.0937500
        k(    7) = (   0.0000000   0.0000000  -0.5000000), wk =   0.0468750
        k(    8) = (   0.0000000   0.2500000  -0.5000000), wk =   0.0937500
        k(    9) = (   0.1250000   0.1250000   0.1250000), wk =   0.0312500
        k(   10) = (  -0.2500000  -0.2500000  -0.2500000), wk =   0.0156250
        k(   11) = (  -0.3750000  -0.1250000  -0.3750000), wk =   0.0937500
        k(   12) = (   0.3750000  -0.1250000   0.3750000), wk =   0.0937500
        k(   13) = (  -0.2500000   0.0000000  -0.2500000), wk =   0.0937500
        k(   14) = (   0.0000000   0.0000000   0.0000000), wk =   0.0156250
        k(   15) = (  -0.1250000   0.1250000   0.1250000), wk =   0.0937500
        k(   16) = (   0.2500000  -0.2500000  -0.2500000), wk =   0.0468750
        k(   17) = (   0.0000000   0.0000000   0.2500000), wk =   0.0937500
        k(   18) = (   0.3750000  -0.3750000  -0.1250000), wk =   0.1875000
        k(   19) = (   0.2500000  -0.2500000   0.0000000), wk =   0.0937500
        k(   20) = (   0.0000000   0.0000000  -0.5000000), wk =   0.0468750
        k(   21) = (   0.0000000   0.2500000  -0.5000000), wk =   0.0937500
        k(   22) = (   0.1250000   0.1250000   0.1250000), wk =   0.0312500
        k(   23) = (  -0.2500000  -0.2500000  -0.2500000), wk =   0.0156250
        k(   24) = (  -0.3750000  -0.1250000  -0.3750000), wk =   0.0937500
        k(   25) = (   0.3750000  -0.1250000   0.3750000), wk =   0.0937500
        k(   26) = (  -0.2500000   0.0000000  -0.2500000), wk =   0.0937500

     Dense  grid:    86547 G-vectors     FFT dimensions: (  64,  64,  64)

     Smooth grid:    22075 G-vectors     FFT dimensions: (  40,  40,  40)

     Largest allocated arrays     est. size (Mb)     dimensions
        Kohn-Sham Wavefunctions         3.25 Mb     (   2764,   77)
        Atomic wavefunctions            3.37 Mb     (   2764,   80)
        NL pseudopotentials             8.77 Mb     (   2764,  208)
        Each V/rho on FFT grid          8.00 Mb     ( 262144,   2)
        Each G-vector array             0.66 Mb     (  86547)
        G-vector shells                 0.00 Mb     (    635)
     Largest temporary arrays     est. size (Mb)     dimensions
        Auxiliary wavefunctions        12.99 Mb     (   2764,  308)
        Each subspace H/S matrix        1.45 Mb     ( 308, 308)
        Each <psi_i|beta_j> matrix      0.24 Mb     (    208,   77)
        Arrays for rho mixing          32.00 Mb     ( 262144,   8)

     Check: negative/imaginary core charge=   -0.000047    0.000000

     The initial density is read from file :
     ./temp/nio.save/charge-density.dat

     Number of +U iterations with fixed ns =  0
     Starting occupations:
 --- enter write_ns ---
 LDA+U parameters:
U( 1)     =  0.00000000
alpha( 1) = -0.07000000
U( 2)     =  0.00000000
alpha( 2) =  0.00000000
U( 3)     =  0.00000000
alpha( 3) =  0.00000000
U( 4)     =  0.00000000
alpha( 4) =  0.00000000
atom    1   Tr[ns(na)] (up, down, total) =   4.95240  3.75362  8.70602
   spin  1
    eigenvalues: 
  0.980  0.980  0.997  0.997  0.997
    eigenvectors:
  0.161  0.839  0.000  0.000  0.000
  0.000  0.000  0.218  0.449  0.333
  0.000  0.000  0.120  0.546  0.333
  0.839  0.161  0.000  0.000  0.000
  0.000  0.000  0.662  0.005  0.333
    occupations:
  0.980  0.000  0.000  0.000  0.000
  0.000  0.997  0.000  0.000  0.000
  0.000  0.000  0.997  0.000  0.000
  0.000  0.000  0.000  0.980  0.000
  0.000  0.000  0.000  0.000  0.997
   spin  2
    eigenvalues: 
  0.384  0.384  0.995  0.995  0.995
    eigenvectors:
  0.002  0.998  0.000  0.000  0.000
  0.000  0.000  0.000  0.667  0.333
  0.000  0.000  0.499  0.168  0.333
  0.998  0.002  0.000  0.000  0.000
  0.000  0.000  0.501  0.166  0.333
    occupations:
  0.384  0.001  0.001  0.000  0.001
  0.001  0.995  0.000  0.001  0.000
  0.001  0.000  0.995 -0.001  0.000
  0.000  0.001 -0.001  0.384  0.000
  0.001  0.000  0.000  0.000  0.995
atomic mag. moment =     1.198787
atom    2   Tr[ns(na)] (up, down, total) =   4.95241  3.75363  8.70603
   spin  1
    eigenvalues: 
  0.980  0.980  0.997  0.997  0.997
    eigenvectors:
  0.250  0.750  0.000  0.000  0.000
  0.000  0.000  0.500  0.167  0.333
  0.000  0.000  0.000  0.667  0.333
  0.750  0.250  0.000  0.000  0.000
  0.000  0.000  0.500  0.167  0.333
    occupations:
  0.980  0.000  0.000  0.000  0.000
  0.000  0.997  0.000  0.000  0.000
  0.000  0.000  0.997  0.000  0.000
  0.000  0.000  0.000  0.980  0.000
  0.000  0.000  0.000  0.000  0.997
   spin  2
    eigenvalues: 
  0.384  0.384  0.995  0.995  0.995
    eigenvectors:
  0.750  0.250  0.000  0.000  0.000
  0.000  0.000  0.500  0.167  0.333
  0.000  0.000  0.000  0.666  0.334
  0.250  0.750  0.000  0.000  0.000
  0.000  0.000  0.500  0.167  0.333
    occupations:
  0.384  0.001  0.001  0.000  0.001
  0.001  0.995  0.000  0.001  0.000
  0.001  0.000  0.995 -0.001  0.000
  0.000  0.001 -0.001  0.384  0.000
  0.001  0.000  0.000  0.000  0.995
atomic mag. moment =     1.198778
atom    3   Tr[ns(na)] (up, down, total) =   4.95241  3.75363  8.70603
   spin  1
    eigenvalues: 
  0.980  0.980  0.997  0.997  0.997
    eigenvectors:
  0.250  0.750  0.000  0.000  0.000
  0.000  0.000  0.000  0.667  0.333
  0.000  0.000  0.500  0.167  0.333
  0.750  0.250  0.000  0.000  0.000
  0.000  0.000  0.500  0.167  0.333
    occupations:
  0.980  0.000  0.000  0.000  0.000
  0.000  0.997  0.000  0.000  0.000
  0.000  0.000  0.997  0.000  0.000
  0.000  0.000  0.000  0.980  0.000
  0.000  0.000  0.000  0.000  0.997
   spin  2
    eigenvalues: 
  0.384  0.384  0.995  0.995  0.995
    eigenvectors:
  0.750  0.250  0.000  0.000  0.000
  0.000  0.000  0.000  0.666  0.334
  0.000  0.000  0.500  0.167  0.333
  0.250  0.750  0.000  0.000  0.000
  0.000  0.000  0.500  0.167  0.333
    occupations:
  0.384  0.001  0.001  0.000  0.001
  0.001  0.995  0.000  0.001  0.000
  0.001  0.000  0.995 -0.001  0.000
  0.000  0.001 -0.001  0.384  0.000
  0.001  0.000  0.000  0.000  0.995
atomic mag. moment =     1.198778
atom    4   Tr[ns(na)] (up, down, total) =   4.95241  3.75363  8.70603
   spin  1
    eigenvalues: 
  0.980  0.980  0.997  0.997  0.997
    eigenvectors:
  1.000  0.000  0.000  0.000  0.000
  0.000  0.000  0.500  0.167  0.333
  0.000  0.000  0.500  0.167  0.333
  0.000  1.000  0.000  0.000  0.000
  0.000  0.000  0.000  0.667  0.333
    occupations:
  0.980  0.000  0.000  0.000  0.000
  0.000  0.997  0.000  0.000  0.000
  0.000  0.000  0.997  0.000  0.000
  0.000  0.000  0.000  0.980  0.000
  0.000  0.000  0.000  0.000  0.997
   spin  2
    eigenvalues: 
  0.384  0.384  0.995  0.995  0.995
    eigenvectors:
  0.000  1.000  0.000  0.000  0.000
  0.000  0.000  0.500  0.167  0.333
  0.000  0.000  0.500  0.167  0.333
  1.000  0.000  0.000  0.000  0.000
  0.000  0.000  0.000  0.666  0.334
    occupations:
  0.384  0.001  0.001  0.000  0.001
  0.001  0.995  0.000  0.001  0.000
  0.001  0.000  0.995 -0.001  0.000
  0.000  0.001 -0.001  0.384  0.000
  0.001  0.000  0.000  0.000  0.995
atomic mag. moment =     1.198778
atom    5   Tr[ns(na)] (up, down, total) =   3.75362  4.95240  8.70603
   spin  1
    eigenvalues: 
  0.384  0.384  0.995  0.995  0.995
    eigenvectors:
  0.000  1.000  0.000  0.000  0.000
  0.000  0.000  0.167  0.500  0.333
  0.000  0.000  0.167  0.500  0.333
  1.000  0.000  0.000  0.000  0.000
  0.000  0.000  0.667  0.000  0.333
    occupations:
  0.384  0.001  0.001  0.000  0.001
  0.001  0.995  0.000  0.001  0.000
  0.001  0.000  0.995 -0.001  0.000
  0.000  0.001 -0.001  0.384  0.000
  0.001  0.000  0.000  0.000  0.995
   spin  2
    eigenvalues: 
  0.980  0.980  0.997  0.997  0.997
    eigenvectors:
  1.000  0.000  0.000  0.000  0.000
  0.000  0.000  0.500  0.167  0.333
  0.000  0.000  0.500  0.167  0.333
  0.000  1.000  0.000  0.000  0.000
  0.000  0.000  0.000  0.666  0.334
    occupations:
  0.980  0.000  0.000  0.000  0.000
  0.000  0.997  0.000  0.000  0.000
  0.000  0.000  0.997  0.000  0.000
  0.000  0.000  0.000  0.980  0.000
  0.000  0.000  0.000  0.000  0.997
atomic mag. moment =    -1.198782
atom    6   Tr[ns(na)] (up, down, total) =   3.75362  4.95240  8.70603
   spin  1
    eigenvalues: 
  0.384  0.384  0.995  0.995  0.995
    eigenvectors:
  0.750  0.250  0.000  0.000  0.000
  0.000  0.000  0.667  0.000  0.333
  0.000  0.000  0.167  0.500  0.333
  0.250  0.750  0.000  0.000  0.000
  0.000  0.000  0.167  0.500  0.333
    occupations:
  0.384  0.001  0.001  0.000  0.001
  0.001  0.995  0.000  0.001  0.000
  0.001  0.000  0.995 -0.001  0.000
  0.000  0.001 -0.001  0.384  0.000
  0.001  0.000  0.000  0.000  0.995
   spin  2
    eigenvalues: 
  0.980  0.980  0.997  0.997  0.997
    eigenvectors:
  0.250  0.750  0.000  0.000  0.000
  0.000  0.000  0.000  0.666  0.334
  0.000  0.000  0.500  0.167  0.333
  0.750  0.250  0.000  0.000  0.000
  0.000  0.000  0.500  0.167  0.333
    occupations:
  0.980  0.000  0.000  0.000  0.000
  0.000  0.997  0.000  0.000  0.000
  0.000  0.000  0.997  0.000  0.000
  0.000  0.000  0.000  0.980  0.000
  0.000  0.000  0.000  0.000  0.997
atomic mag. moment =    -1.198782
atom    7   Tr[ns(na)] (up, down, total) =   3.75362  4.95240  8.70603
   spin  1
    eigenvalues: 
  0.384  0.384  0.995  0.995  0.995
    eigenvectors:
  0.750  0.250  0.000  0.000  0.000
  0.000  0.000  0.167  0.500  0.333
  0.000  0.000  0.667  0.000  0.333
  0.250  0.750  0.000  0.000  0.000
  0.000  0.000  0.167  0.500  0.333
    occupations:
  0.384  0.001  0.001  0.000  0.001
  0.001  0.995  0.000  0.001  0.000
  0.001  0.000  0.995 -0.001  0.000
  0.000  0.001 -0.001  0.384  0.000
  0.001  0.000  0.000  0.000  0.995
   spin  2
    eigenvalues: 
  0.980  0.980  0.997  0.997  0.997
    eigenvectors:
  0.250  0.750  0.000  0.000  0.000
  0.000  0.000  0.500  0.167  0.333
  0.000  0.000  0.000  0.666  0.334
  0.750  0.250  0.000  0.000  0.000
  0.000  0.000  0.500  0.167  0.333
    occupations:
  0.980  0.000  0.000  0.000  0.000
  0.000  0.997  0.000  0.000  0.000
  0.000  0.000  0.997  0.000  0.000
  0.000  0.000  0.000  0.980  0.000
  0.000  0.000  0.000  0.000  0.997
atomic mag. moment =    -1.198782
atom    8   Tr[ns(na)] (up, down, total) =   3.75362  4.95241  8.70603
   spin  1
    eigenvalues: 
  0.384  0.384  0.995  0.995  0.995
    eigenvectors:
  0.011  0.989  0.000  0.000  0.000
  0.000  0.000  0.110  0.557  0.333
  0.000  0.000  0.231  0.436  0.333
  0.989  0.011  0.000  0.000  0.000
  0.000  0.000  0.659  0.007  0.333
    occupations:
  0.384  0.001  0.001  0.000  0.001
  0.001  0.995  0.000  0.001  0.000
  0.001  0.000  0.995 -0.001  0.000
  0.000  0.001 -0.001  0.384  0.000
  0.001  0.000  0.000  0.000  0.995
   spin  2
    eigenvalues: 
  0.980  0.980  0.997  0.997  0.997
    eigenvectors:
  0.319  0.681  0.000  0.000  0.000
  0.000  0.000  0.031  0.635  0.333
  0.000  0.000  0.362  0.305  0.333
  0.681  0.319  0.000  0.000  0.000
  0.000  0.000  0.607  0.060  0.333
    occupations:
  0.980  0.000  0.000  0.000  0.000
  0.000  0.997  0.000  0.000  0.000
  0.000  0.000  0.997  0.000  0.000
  0.000  0.000  0.000  0.980  0.000
  0.000  0.000  0.000  0.000  0.997
atomic mag. moment =    -1.198781
atom    9   Tr[ns(na)] (up, down, total) =   2.81114  2.81114  5.62228
   spin  1
    eigenvalues: 
  0.937  0.937  0.938
    eigenvectors:
  0.667  0.000  0.333
  0.167  0.500  0.333
  0.167  0.500  0.333
    occupations:
  0.937  0.000  0.000
  0.000  0.937  0.000
  0.000  0.000  0.937
   spin  2
    eigenvalues: 
  0.937  0.937  0.938
    eigenvectors:
  0.000  0.666  0.334
  0.500  0.167  0.333
  0.500  0.167  0.333
    occupations:
  0.937  0.000  0.000
  0.000  0.937  0.000
  0.000  0.000  0.937
atomic mag. moment =     0.000000
atom   10   Tr[ns(na)] (up, down, total) =   2.81114  2.81114  5.62228
   spin  1
    eigenvalues: 
  0.937  0.937  0.938
    eigenvectors:
  0.520  0.147  0.333
  0.479  0.187  0.333
  0.001  0.666  0.333
    occupations:
  0.937  0.000  0.000
  0.000  0.937  0.000
  0.000  0.000  0.937
   spin  2
    eigenvalues: 
  0.937  0.937  0.938
    eigenvectors:
  0.345  0.322  0.333
  0.616  0.051  0.333
  0.039  0.628  0.333
    occupations:
  0.937  0.000  0.000
  0.000  0.937  0.000
  0.000  0.000  0.937
atomic mag. moment =     0.000001
atom   11   Tr[ns(na)] (up, down, total) =   2.81114  2.81114  5.62228
   spin  1
    eigenvalues: 
  0.937  0.937  0.938
    eigenvectors:
  0.167  0.500  0.333
  0.167  0.500  0.333
  0.667  0.000  0.333
    occupations:
  0.937  0.000  0.000
  0.000  0.937  0.000
  0.000  0.000  0.937
   spin  2
    eigenvalues: 
  0.937  0.937  0.938
    eigenvectors:
  0.500  0.167  0.333
  0.500  0.167  0.333
  0.000  0.666  0.334
    occupations:
  0.937  0.000  0.000
  0.000  0.937  0.000
  0.000  0.000  0.937
atomic mag. moment =     0.000000
atom   12   Tr[ns(na)] (up, down, total) =   2.81114  2.81114  5.62228
   spin  1
    eigenvalues: 
  0.937  0.937  0.938
    eigenvectors:
  0.167  0.500  0.333
  0.667  0.000  0.333
  0.167  0.500  0.333
    occupations:
  0.937  0.000  0.000
  0.000  0.937  0.000
  0.000  0.000  0.937
   spin  2
    eigenvalues: 
  0.937  0.937  0.938
    eigenvectors:
  0.500  0.167  0.333
  0.000  0.666  0.334
  0.500  0.167  0.333
    occupations:
  0.937  0.000  0.000
  0.000  0.937  0.000
  0.000  0.000  0.937
atomic mag. moment =     0.000000
atom   13   Tr[ns(na)] (up, down, total) =   2.81114  2.81114  5.62228
   spin  1
    eigenvalues: 
  0.937  0.937  0.938
    eigenvectors:
  0.167  0.500  0.333
  0.167  0.500  0.333
  0.667  0.000  0.333
    occupations:
  0.937  0.000  0.000
  0.000  0.937  0.000
  0.000  0.000  0.937
   spin  2
    eigenvalues: 
  0.937  0.937  0.938
    eigenvectors:
  0.500  0.167  0.333
  0.500  0.167  0.333
  0.000  0.666  0.334
    occupations:
  0.937  0.000  0.000
  0.000  0.937  0.000
  0.000  0.000  0.937
atomic mag. moment =     0.000000
atom   14   Tr[ns(na)] (up, down, total) =   2.81114  2.81114  5.62228
   spin  1
    eigenvalues: 
  0.937  0.937  0.938
    eigenvectors:
  0.167  0.500  0.333
  0.667  0.000  0.333
  0.167  0.500  0.333
    occupations:
  0.937  0.000  0.000
  0.000  0.937  0.000
  0.000  0.000  0.937
   spin  2
    eigenvalues: 
  0.937  0.937  0.938
    eigenvectors:
  0.500  0.167  0.333
  0.000  0.666  0.334
  0.500  0.167  0.333
    occupations:
  0.937  0.000  0.000
  0.000  0.937  0.000
  0.000  0.000  0.937
atomic mag. moment =     0.000000
atom   15   Tr[ns(na)] (up, down, total) =   2.81114  2.81114  5.62228
   spin  1
    eigenvalues: 
  0.937  0.937  0.938
    eigenvectors:
  0.421  0.246  0.333
  0.568  0.099  0.333
  0.011  0.656  0.333
    occupations:
  0.937  0.000  0.000
  0.000  0.937  0.000
  0.000  0.000  0.937
   spin  2
    eigenvalues: 
  0.937  0.937  0.938
    eigenvectors:
  0.345  0.322  0.333
  0.616  0.051  0.333
  0.039  0.628  0.333
    occupations:
  0.937  0.000  0.000
  0.000  0.937  0.000
  0.000  0.000  0.937
atomic mag. moment =     0.000001
atom   16   Tr[ns(na)] (up, down, total) =   2.81114  2.81114  5.62228
   spin  1
    eigenvalues: 
  0.937  0.937  0.938
    eigenvectors:
  0.667  0.000  0.333
  0.167  0.500  0.333
  0.167  0.500  0.333
    occupations:
  0.937  0.000  0.000
  0.000  0.937  0.000
  0.000  0.000  0.937
   spin  2
    eigenvalues: 
  0.937  0.937  0.938
    eigenvectors:
  0.000  0.666  0.334
  0.500  0.167  0.333
  0.500  0.167  0.333
    occupations:
  0.937  0.000  0.000
  0.000  0.937  0.000
  0.000  0.000  0.937
atomic mag. moment =     0.000000
N of occupied +U levels = 114.6264869
 --- exit write_ns ---
 Atomic wfc used for LDA+U Projector are NOT orthogonalized
     Starting wfc from file

     total cpu time spent up to now is       16.5 secs

     per-process dynamical memory:    86.3 Mb

     Self-consistent Calculation

     iteration #  1     ecut=    30.00 Ry     beta=0.30
     Davidson diagonalization with overlap
     ethr =  9.70E-11,  avg # of iterations = 10.7
 --- enter write_ns ---
 LDA+U parameters:
U( 1)     =  0.00000000
alpha( 1) = -0.07000000
U( 2)     =  0.00000000
alpha( 2) =  0.00000000
U( 3)     =  0.00000000
alpha( 3) =  0.00000000
U( 4)     =  0.00000000
alpha( 4) =  0.00000000
atom    1   Tr[ns(na)] (up, down, total) =   4.95378  3.76861  8.72239
   spin  1
    eigenvalues: 
  0.981  0.981  0.997  0.997  0.997
    eigenvectors:
  0.720  0.280  0.000  0.000  0.000
  0.000  0.000  0.083  0.584  0.333
  0.000  0.000  0.268  0.399  0.333
  0.280  0.720  0.000  0.000  0.000
  0.000  0.000  0.649  0.018  0.333
    occupations:
  0.981  0.000  0.000  0.000  0.000
  0.000  0.997  0.000  0.000  0.000
  0.000  0.000  0.997  0.000  0.000
  0.000  0.000  0.000  0.981  0.000
  0.000  0.000  0.000  0.000  0.997
   spin  2
    eigenvalues: 
  0.391  0.391  0.995  0.995  0.996
    eigenvectors:
  0.730  0.270  0.000  0.000  0.000
  0.000  0.000  0.142  0.525  0.333
  0.000  0.000  0.193  0.474  0.333
  0.270  0.730  0.000  0.000  0.000
  0.000  0.000  0.665  0.001  0.333
    occupations:
  0.391  0.001  0.001  0.000  0.001
  0.001  0.996  0.000  0.001  0.000
  0.001  0.000  0.996 -0.001  0.000
  0.000  0.001 -0.001  0.391  0.000
  0.001  0.000  0.000  0.000  0.996
atomic mag. moment =     1.185163
atom    2   Tr[ns(na)] (up, down, total) =   4.95239  3.75318  8.70557
   spin  1
    eigenvalues: 
  0.980  0.980  0.997  0.997  0.997
    eigenvectors:
  0.750  0.250  0.000  0.000  0.000
  0.000  0.000  0.500  0.168  0.332
  0.000  0.000  0.000  0.664  0.336
  0.250  0.750  0.000  0.000  0.000
  0.000  0.000  0.500  0.168  0.332
    occupations:
  0.980  0.000  0.000  0.000  0.000
  0.000  0.997  0.000  0.000  0.000
  0.000  0.000  0.997  0.000  0.000
  0.000  0.000  0.000  0.980  0.000
  0.000  0.000  0.000  0.000  0.997
   spin  2
    eigenvalues: 
  0.384  0.384  0.995  0.995  0.995
    eigenvectors:
  0.250  0.750  0.000  0.000  0.000
  0.000  0.000  0.057  0.500  0.443
  0.000  0.000  0.887  0.000  0.113
  0.750  0.250  0.000  0.000  0.000
  0.000  0.000  0.057  0.500  0.443
    occupations:
  0.384  0.001  0.000  0.000  0.001
  0.001  0.995  0.000  0.001  0.000
  0.000  0.000  0.995 -0.001  0.000
  0.000  0.001 -0.001  0.384  0.000
  0.001  0.000  0.000  0.000  0.995
atomic mag. moment =     1.199219
atom    3   Tr[ns(na)] (up, down, total) =   4.95239  3.75318  8.70557
   spin  1
    eigenvalues: 
  0.980  0.980  0.997  0.997  0.997
    eigenvectors:
  0.750  0.250  0.000  0.000  0.000
  0.000  0.000  0.000  0.664  0.336
  0.000  0.000  0.500  0.168  0.332
  0.250  0.750  0.000  0.000  0.000
  0.000  0.000  0.500  0.168  0.332
    occupations:
  0.980  0.000  0.000  0.000  0.000
  0.000  0.997  0.000  0.000  0.000
  0.000  0.000  0.997  0.000  0.000
  0.000  0.000  0.000  0.980  0.000
  0.000  0.000  0.000  0.000  0.997
   spin  2
    eigenvalues: 
  0.384  0.384  0.995  0.995  0.995
    eigenvectors:
  0.250  0.750  0.000  0.000  0.000
  0.000  0.000  0.887  0.000  0.113
  0.000  0.000  0.057  0.500  0.443
  0.750  0.250  0.000  0.000  0.000
  0.000  0.000  0.057  0.500  0.443
    occupations:
  0.384  0.000  0.001  0.000  0.001
  0.000  0.995  0.000  0.001  0.000
  0.001  0.000  0.995 -0.001  0.000
  0.000  0.001 -0.001  0.384  0.000
  0.001  0.000  0.000  0.000  0.995
atomic mag. moment =     1.199219
atom    4   Tr[ns(na)] (up, down, total) =   4.95239  3.75318  8.70557
   spin  1
    eigenvalues: 
  0.980  0.980  0.997  0.997  0.997
    eigenvectors:
  0.000  1.000  0.000  0.000  0.000
  0.000  0.000  0.500  0.168  0.332
  0.000  0.000  0.500  0.168  0.332
  1.000  0.000  0.000  0.000  0.000
  0.000  0.000  0.000  0.664  0.336
    occupations:
  0.980  0.000  0.000  0.000  0.000
  0.000  0.997  0.000  0.000  0.000
  0.000  0.000  0.997  0.000  0.000
  0.000  0.000  0.000  0.980  0.000
  0.000  0.000  0.000  0.000  0.997
   spin  2
    eigenvalues: 
  0.384  0.384  0.995  0.995  0.995
    eigenvectors:
  1.000  0.000  0.000  0.000  0.000
  0.000  0.000  0.057  0.500  0.443
  0.000  0.000  0.057  0.500  0.443
  0.000  1.000  0.000  0.000  0.000
  0.000  0.000  0.887  0.000  0.113
    occupations:
  0.384  0.001  0.001  0.000  0.001
  0.001  0.995  0.000  0.001  0.000
  0.001  0.000  0.995 -0.001  0.000
  0.000  0.001 -0.001  0.384  0.000
  0.001  0.000  0.000  0.000  0.995
atomic mag. moment =     1.199219
atom    5   Tr[ns(na)] (up, down, total) =   3.75357  4.95235  8.70593
   spin  1
    eigenvalues: 
  0.384  0.384  0.995  0.995  0.995
    eigenvectors:
  1.000  0.000  0.000  0.000  0.000
  0.000  0.000  0.500  0.166  0.334
  0.000  0.000  0.500  0.166  0.334
  0.000  1.000  0.000  0.000  0.000
  0.000  0.000  0.000  0.667  0.333
    occupations:
  0.384  0.001  0.001  0.000  0.001
  0.001  0.995  0.000  0.001  0.000
  0.001  0.000  0.995 -0.001  0.000
  0.000  0.001 -0.001  0.384  0.000
  0.001  0.000  0.000  0.000  0.995
   spin  2
    eigenvalues: 
  0.980  0.980  0.997  0.997  0.997
    eigenvectors:
  1.000  0.000  0.000  0.000  0.000
  0.000  0.000  0.025  0.500  0.475
  0.000  0.000  0.025  0.500  0.475
  0.000  1.000  0.000  0.000  0.000
  0.000  0.000  0.950  0.000  0.050
    occupations:
  0.980  0.000  0.000  0.000  0.000
  0.000  0.997  0.000  0.000  0.000
  0.000  0.000  0.997  0.000  0.000
  0.000  0.000  0.000  0.980  0.000
  0.000  0.000  0.000  0.000  0.997
atomic mag. moment =    -1.198778
atom    6   Tr[ns(na)] (up, down, total) =   3.75357  4.95235  8.70593
   spin  1
    eigenvalues: 
  0.384  0.384  0.995  0.995  0.995
    eigenvectors:
  0.250  0.750  0.000  0.000  0.000
  0.000  0.000  0.000  0.667  0.333
  0.000  0.000  0.500  0.166  0.334
  0.750  0.250  0.000  0.000  0.000
  0.000  0.000  0.500  0.166  0.334
    occupations:
  0.384  0.001  0.001  0.000  0.001
  0.001  0.995  0.000  0.001  0.000
  0.001  0.000  0.995 -0.001  0.000
  0.000  0.001 -0.001  0.384  0.000
  0.001  0.000  0.000  0.000  0.995
   spin  2
    eigenvalues: 
  0.980  0.980  0.997  0.997  0.997
    eigenvectors:
  0.250  0.750  0.000  0.000  0.000
  0.000  0.000  0.950  0.000  0.050
  0.000  0.000  0.025  0.500  0.475
  0.750  0.250  0.000  0.000  0.000
  0.000  0.000  0.025  0.500  0.475
    occupations:
  0.980  0.000  0.000  0.000  0.000
  0.000  0.997  0.000  0.000  0.000
  0.000  0.000  0.997  0.000  0.000
  0.000  0.000  0.000  0.980  0.000
  0.000  0.000  0.000  0.000  0.997
atomic mag. moment =    -1.198778
atom    7   Tr[ns(na)] (up, down, total) =   3.75357  4.95235  8.70593
   spin  1
    eigenvalues: 
  0.384  0.384  0.995  0.995  0.995
    eigenvectors:
  0.250  0.750  0.000  0.000  0.000
  0.000  0.000  0.500  0.166  0.334
  0.000  0.000  0.000  0.667  0.333
  0.750  0.250  0.000  0.000  0.000
  0.000  0.000  0.500  0.166  0.334
    occupations:
  0.384  0.001  0.001  0.000  0.001
  0.001  0.995  0.000  0.001  0.000
  0.001  0.000  0.995 -0.001  0.000
  0.000  0.001 -0.001  0.384  0.000
  0.001  0.000  0.000  0.000  0.995
   spin  2
    eigenvalues: 
  0.980  0.980  0.997  0.997  0.997
    eigenvectors:
  0.250  0.750  0.000  0.000  0.000
  0.000  0.000  0.025  0.500  0.475
  0.000  0.000  0.950  0.000  0.050
  0.750  0.250  0.000  0.000  0.000
  0.000  0.000  0.025  0.500  0.475
    occupations:
  0.980  0.000  0.000  0.000  0.000
  0.000  0.997  0.000  0.000  0.000
  0.000  0.000  0.997  0.000  0.000
  0.000  0.000  0.000  0.980  0.000
  0.000  0.000  0.000  0.000  0.997
atomic mag. moment =    -1.198778
atom    8   Tr[ns(na)] (up, down, total) =   3.75204  4.95078  8.70282
   spin  1
    eigenvalues: 
  0.383  0.383  0.995  0.995  0.995
    eigenvectors:
  0.151  0.849  0.000  0.000  0.000
  0.000  0.000  0.129  0.537  0.333
  0.000  0.000  0.207  0.460  0.333
  0.849  0.151  0.000  0.000  0.000
  0.000  0.000  0.664  0.003  0.333
    occupations:
  0.383  0.001  0.001  0.000  0.001
  0.001  0.995  0.000  0.001  0.000
  0.001  0.000  0.995 -0.001  0.000
  0.000  0.001 -0.001  0.383  0.000
  0.001  0.000  0.000  0.000  0.995
   spin  2
    eigenvalues: 
  0.979  0.979  0.997  0.997  0.997
    eigenvectors:
  0.599  0.401  0.000  0.000  0.000
  0.000  0.000  0.059  0.608  0.333
  0.000  0.000  0.307  0.360  0.333
  0.401  0.599  0.000  0.000  0.000
  0.000  0.000  0.634  0.032  0.333
    occupations:
  0.979  0.000  0.000  0.000  0.000
  0.000  0.997  0.000  0.000  0.000
  0.000  0.000  0.997  0.000  0.000
  0.000  0.000  0.000  0.979  0.000
  0.000  0.000  0.000  0.000  0.997
atomic mag. moment =    -1.198737
atom    9   Tr[ns(na)] (up, down, total) =   2.81115  2.81004  5.62119
   spin  1
    eigenvalues: 
  0.937  0.937  0.938
    eigenvectors:
  0.000  0.663  0.337
  0.500  0.168  0.332
  0.500  0.168  0.332
    occupations:
  0.937  0.000  0.000
  0.000  0.937  0.000
  0.000  0.000  0.937
   spin  2
    eigenvalues: 
  0.936  0.937  0.938
    eigenvectors:
  0.887  0.000  0.113
  0.056  0.500  0.444
  0.056  0.500  0.444
    occupations:
  0.936  0.000  0.000
  0.000  0.937  0.000
  0.000  0.000  0.937
atomic mag. moment =     0.001102
atom   10   Tr[ns(na)] (up, down, total) =   2.81114  2.81113  5.62227
   spin  1
    eigenvalues: 
  0.937  0.937  0.938
    eigenvectors:
  0.441  0.225  0.333
  0.553  0.114  0.333
  0.006  0.660  0.333
    occupations:
  0.937  0.000  0.000
  0.000  0.937  0.000
  0.000  0.000  0.937
   spin  2
    eigenvalues: 
  0.937  0.937  0.938
    eigenvectors:
  0.369  0.298  0.333
  0.602  0.064  0.333
  0.028  0.638  0.333
    occupations:
  0.937  0.000  0.000
  0.000  0.937  0.000
  0.000  0.000  0.937
atomic mag. moment =     0.000010
atom   11   Tr[ns(na)] (up, down, total) =   2.81115  2.81004  5.62119
   spin  1
    eigenvalues: 
  0.937  0.937  0.938
    eigenvectors:
  0.500  0.168  0.332
  0.500  0.168  0.332
  0.000  0.663  0.337
    occupations:
  0.937  0.000  0.000
  0.000  0.937  0.000
  0.000  0.000  0.937
   spin  2
    eigenvalues: 
  0.936  0.937  0.938
    eigenvectors:
  0.056  0.500  0.444
  0.056  0.500  0.444
  0.887  0.000  0.113
    occupations:
  0.937  0.000  0.000
  0.000  0.937  0.000
  0.000  0.000  0.936
atomic mag. moment =     0.001102
atom   12   Tr[ns(na)] (up, down, total) =   2.81115  2.81004  5.62119
   spin  1
    eigenvalues: 
  0.937  0.937  0.938
    eigenvectors:
  0.500  0.168  0.332
  0.000  0.663  0.337
  0.500  0.168  0.332
    occupations:
  0.937  0.000  0.000
  0.000  0.937  0.000
  0.000  0.000  0.937
   spin  2
    eigenvalues: 
  0.936  0.937  0.938
    eigenvectors:
  0.056  0.500  0.444
  0.887  0.000  0.113
  0.056  0.500  0.444
    occupations:
  0.937  0.000  0.000
  0.000  0.936  0.000
  0.000  0.000  0.937
atomic mag. moment =     0.001102
atom   13   Tr[ns(na)] (up, down, total) =   2.81115  2.81004  5.62119
   spin  1
    eigenvalues: 
  0.937  0.937  0.938
    eigenvectors:
  0.500  0.168  0.332
  0.500  0.168  0.332
  0.000  0.663  0.337
    occupations:
  0.937  0.000  0.000
  0.000  0.937  0.000
  0.000  0.000  0.937
   spin  2
    eigenvalues: 
  0.936  0.937  0.938
    eigenvectors:
  0.056  0.500  0.444
  0.056  0.500  0.444
  0.887  0.000  0.113
    occupations:
  0.937  0.000  0.000
  0.000  0.937  0.000
  0.000  0.000  0.936
atomic mag. moment =     0.001102
atom   14   Tr[ns(na)] (up, down, total) =   2.81115  2.81004  5.62119
   spin  1
    eigenvalues: 
  0.937  0.937  0.938
    eigenvectors:
  0.500  0.168  0.332
  0.000  0.663  0.337
  0.500  0.168  0.332
    occupations:
  0.937  0.000  0.000
  0.000  0.937  0.000
  0.000  0.000  0.937
   spin  2
    eigenvalues: 
  0.936  0.937  0.938
    eigenvectors:
  0.056  0.500  0.444
  0.887  0.000  0.113
  0.056  0.500  0.444
    occupations:
  0.937  0.000  0.000
  0.000  0.936  0.000
  0.000  0.000  0.937
atomic mag. moment =     0.001102
atom   15   Tr[ns(na)] (up, down, total) =   2.81114  2.81113  5.62227
   spin  1
    eigenvalues: 
  0.937  0.937  0.938
    eigenvectors:
  0.426  0.241  0.333
  0.565  0.102  0.333
  0.010  0.657  0.333
    occupations:
  0.937  0.000  0.000
  0.000  0.937  0.000
  0.000  0.000  0.937
   spin  2
    eigenvalues: 
  0.937  0.937  0.938
    eigenvectors:
  0.423  0.243  0.333
  0.566  0.100  0.333
  0.010  0.656  0.333
    occupations:
  0.937  0.000  0.000
  0.000  0.937  0.000
  0.000  0.000  0.937
atomic mag. moment =     0.000010
atom   16   Tr[ns(na)] (up, down, total) =   2.81115  2.81004  5.62119
   spin  1
    eigenvalues: 
  0.937  0.937  0.938
    eigenvectors:
  0.000  0.663  0.337
  0.500  0.168  0.332
  0.500  0.168  0.332
    occupations:
  0.937  0.000  0.000
  0.000  0.937  0.000
  0.000  0.000  0.937
   spin  2
    eigenvalues: 
  0.936  0.937  0.938
    eigenvectors:
  0.887  0.000  0.113
  0.056  0.500  0.444
  0.056  0.500  0.444
    occupations:
  0.936  0.000  0.000
  0.000  0.937  0.000
  0.000  0.000  0.937
atomic mag. moment =     0.001102
N of occupied +U levels = 114.6313793
 --- exit write_ns ---

     total cpu time spent up to now is       71.3 secs

     total energy              =    -942.06085257 Ry
     Harris-Foulkes estimate   =    -942.06093471 Ry
     estimated scf accuracy    <       0.00018745 Ry

     total magnetization       =     0.00 Bohr mag/cell
     absolute magnetization    =    12.28 Bohr mag/cell

     iteration #  2     ecut=    30.00 Ry     beta=0.30
     Davidson diagonalization with overlap
     ethr =  1.46E-07,  avg # of iterations =  2.0

     total cpu time spent up to now is      109.9 secs

     total energy              =    -942.06088008 Ry
     Harris-Foulkes estimate   =    -942.06094372 Ry
     estimated scf accuracy    <       0.00026522 Ry

     total magnetization       =     0.00 Bohr mag/cell
     absolute magnetization    =    12.28 Bohr mag/cell

     iteration #  3     ecut=    30.00 Ry     beta=0.30
     Davidson diagonalization with overlap
     ethr =  1.46E-07,  avg # of iterations =  1.9

     total cpu time spent up to now is      147.1 secs

     total energy              =    -942.06091169 Ry
     Harris-Foulkes estimate   =    -942.06091208 Ry
     estimated scf accuracy    <       0.00000342 Ry

     total magnetization       =     0.00 Bohr mag/cell
     absolute magnetization    =    12.28 Bohr mag/cell

     iteration #  4     ecut=    30.00 Ry     beta=0.30
     Davidson diagonalization with overlap
     ethr =  2.67E-09,  avg # of iterations =  2.0

     total cpu time spent up to now is      185.0 secs

     total energy              =    -942.06091239 Ry
     Harris-Foulkes estimate   =    -942.06091215 Ry
     estimated scf accuracy    <       0.00000095 Ry

     total magnetization       =     0.00 Bohr mag/cell
     absolute magnetization    =    12.28 Bohr mag/cell

     iteration #  5     ecut=    30.00 Ry     beta=0.30
     Davidson diagonalization with overlap
     ethr =  7.42E-10,  avg # of iterations =  1.3

     total cpu time spent up to now is      222.0 secs

     total energy              =    -942.06091255 Ry
     Harris-Foulkes estimate   =    -942.06091248 Ry
     estimated scf accuracy    <       0.00000055 Ry

     total magnetization       =     0.00 Bohr mag/cell
     absolute magnetization    =    12.28 Bohr mag/cell

     iteration #  6     ecut=    30.00 Ry     beta=0.30
     Davidson diagonalization with overlap
     ethr =  4.26E-10,  avg # of iterations =  1.5

     total cpu time spent up to now is      259.4 secs

     total energy              =    -942.06091263 Ry
     Harris-Foulkes estimate   =    -942.06091261 Ry
     estimated scf accuracy    <       0.00000004 Ry

     total magnetization       =     0.00 Bohr mag/cell
     absolute magnetization    =    12.28 Bohr mag/cell

     iteration #  7     ecut=    30.00 Ry     beta=0.30
     Davidson diagonalization with overlap
     ethr =  3.43E-11,  avg # of iterations =  1.6

     total cpu time spent up to now is      296.8 secs

     End of self-consistent calculation
 --- enter write_ns ---
 LDA+U parameters:
U( 1)     =  0.00000000
alpha( 1) = -0.07000000
U( 2)     =  0.00000000
alpha( 2) =  0.00000000
U( 3)     =  0.00000000
alpha( 3) =  0.00000000
U( 4)     =  0.00000000
alpha( 4) =  0.00000000
atom    1   Tr[ns(na)] (up, down, total) =   4.95238  3.76143  8.71381
   spin  1
    eigenvalues: 
  0.980  0.980  0.997  0.997  0.997
    eigenvectors:
  0.431  0.569  0.000  0.000  0.000
  0.000  0.000  0.094  0.573  0.333
  0.000  0.000  0.253  0.414  0.333
  0.569  0.431  0.000  0.000  0.000
  0.000  0.000  0.654  0.013  0.333
    occupations:
  0.980  0.000  0.000  0.000  0.000
  0.000  0.997  0.000  0.000  0.000
  0.000  0.000  0.997  0.000  0.000
  0.000  0.000  0.000  0.980  0.000
  0.000  0.000  0.000  0.000  0.997
   spin  2
    eigenvalues: 
  0.388  0.388  0.995  0.995  0.996
    eigenvectors:
  0.580  0.420  0.000  0.000  0.000
  0.000  0.000  0.050  0.616  0.333
  0.000  0.000  0.322  0.345  0.333
  0.420  0.580  0.000  0.000  0.000
  0.000  0.000  0.627  0.039  0.333
    occupations:
  0.388  0.001  0.001  0.000  0.001
  0.001  0.995  0.000  0.001  0.000
  0.001  0.000  0.995 -0.001  0.000
  0.000  0.001 -0.001  0.388  0.000
  0.001  0.000  0.000  0.000  0.995
atomic mag. moment =     1.190956
atom    2   Tr[ns(na)] (up, down, total) =   4.95242  3.75349  8.70592
   spin  1
    eigenvalues: 
  0.980  0.980  0.997  0.997  0.997
    eigenvectors:
  0.250  0.750  0.000  0.000  0.000
  0.000  0.000  0.156  0.500  0.344
  0.000  0.000  0.687  0.000  0.313
  0.750  0.250  0.000  0.000  0.000
  0.000  0.000  0.156  0.500  0.344
    occupations:
  0.980  0.000  0.000  0.000  0.000
  0.000  0.997  0.000  0.000  0.000
  0.000  0.000  0.997  0.000  0.000
  0.000  0.000  0.000  0.980  0.000
  0.000  0.000  0.000  0.000  0.997
   spin  2
    eigenvalues: 
  0.384  0.384  0.995  0.995  0.995
    eigenvectors:
  0.250  0.750  0.000  0.000  0.000
  0.000  0.000  0.110  0.500  0.390
  0.000  0.000  0.780  0.000  0.220
  0.750  0.250  0.000  0.000  0.000
  0.000  0.000  0.110  0.500  0.390
    occupations:
  0.384  0.001  0.000  0.000  0.001
  0.001  0.995  0.000  0.001  0.000
  0.000  0.000  0.995 -0.001  0.000
  0.000  0.001 -0.001  0.384  0.000
  0.001  0.000  0.000  0.000  0.995
atomic mag. moment =     1.198926
atom    3   Tr[ns(na)] (up, down, total) =   4.95242  3.75349  8.70592
   spin  1
    eigenvalues: 
  0.980  0.980  0.997  0.997  0.997
    eigenvectors:
  0.250  0.750  0.000  0.000  0.000
  0.000  0.000  0.687  0.000  0.313
  0.000  0.000  0.156  0.500  0.344
  0.750  0.250  0.000  0.000  0.000
  0.000  0.000  0.156  0.500  0.344
    occupations:
  0.980  0.000  0.000  0.000  0.000
  0.000  0.997  0.000  0.000  0.000
  0.000  0.000  0.997  0.000  0.000
  0.000  0.000  0.000  0.980  0.000
  0.000  0.000  0.000  0.000  0.997
   spin  2
    eigenvalues: 
  0.384  0.384  0.995  0.995  0.995
    eigenvectors:
  0.250  0.750  0.000  0.000  0.000
  0.000  0.000  0.780  0.000  0.220
  0.000  0.000  0.110  0.500  0.390
  0.750  0.250  0.000  0.000  0.000
  0.000  0.000  0.110  0.500  0.390
    occupations:
  0.384  0.000  0.001  0.000  0.001
  0.000  0.995  0.000  0.001  0.000
  0.001  0.000  0.995 -0.001  0.000
  0.000  0.001 -0.001  0.384  0.000
  0.001  0.000  0.000  0.000  0.995
atomic mag. moment =     1.198926
atom    4   Tr[ns(na)] (up, down, total) =   4.95242  3.75349  8.70592
   spin  1
    eigenvalues: 
  0.980  0.980  0.997  0.997  0.997
    eigenvectors:
  1.000  0.000  0.000  0.000  0.000
  0.000  0.000  0.156  0.500  0.344
  0.000  0.000  0.156  0.500  0.344
  0.000  1.000  0.000  0.000  0.000
  0.000  0.000  0.687  0.000  0.313
    occupations:
  0.980  0.000  0.000  0.000  0.000
  0.000  0.997  0.000  0.000  0.000
  0.000  0.000  0.997  0.000  0.000
  0.000  0.000  0.000  0.980  0.000
  0.000  0.000  0.000  0.000  0.997
   spin  2
    eigenvalues: 
  0.384  0.384  0.995  0.995  0.995
    eigenvectors:
  1.000  0.000  0.000  0.000  0.000
  0.000  0.000  0.110  0.500  0.390
  0.000  0.000  0.110  0.500  0.390
  0.000  1.000  0.000  0.000  0.000
  0.000  0.000  0.780  0.000  0.220
    occupations:
  0.384  0.001  0.001  0.000  0.001
  0.001  0.995  0.000  0.001  0.000
  0.001  0.000  0.995 -0.001  0.000
  0.000  0.001 -0.001  0.384  0.000
  0.001  0.000  0.000  0.000  0.995
atomic mag. moment =     1.198926
atom    5   Tr[ns(na)] (up, down, total) =   3.75352  4.95240  8.70592
   spin  1
    eigenvalues: 
  0.384  0.384  0.995  0.995  0.995
    eigenvectors:
  0.000  1.000  0.000  0.000  0.000
  0.000  0.000  0.161  0.500  0.339
  0.000  0.000  0.161  0.500  0.339
  1.000  0.000  0.000  0.000  0.000
  0.000  0.000  0.679  0.000  0.321
    occupations:
  0.384  0.001  0.001  0.000  0.001
  0.001  0.995  0.000  0.001  0.000
  0.001  0.000  0.995 -0.001  0.000
  0.000  0.001 -0.001  0.384  0.000
  0.001  0.000  0.000  0.000  0.995
   spin  2
    eigenvalues: 
  0.980  0.980  0.997  0.997  0.997
    eigenvectors:
  1.000  0.000  0.000  0.000  0.000
  0.000  0.000  0.078  0.500  0.422
  0.000  0.000  0.078  0.500  0.422
  0.000  1.000  0.000  0.000  0.000
  0.000  0.000  0.843  0.000  0.157
    occupations:
  0.980  0.000  0.000  0.000  0.000
  0.000  0.997  0.000  0.000  0.000
  0.000  0.000  0.997  0.000  0.000
  0.000  0.000  0.000  0.980  0.000
  0.000  0.000  0.000  0.000  0.997
atomic mag. moment =    -1.198880
atom    6   Tr[ns(na)] (up, down, total) =   3.75352  4.95240  8.70592
   spin  1
    eigenvalues: 
  0.384  0.384  0.995  0.995  0.995
    eigenvectors:
  0.750  0.250  0.000  0.000  0.000
  0.000  0.000  0.679  0.000  0.321
  0.000  0.000  0.161  0.500  0.339
  0.250  0.750  0.000  0.000  0.000
  0.000  0.000  0.161  0.500  0.339
    occupations:
  0.384  0.001  0.001  0.000  0.001
  0.001  0.995  0.000  0.001  0.000
  0.001  0.000  0.995 -0.001  0.000
  0.000  0.001 -0.001  0.384  0.000
  0.001  0.000  0.000  0.000  0.995
   spin  2
    eigenvalues: 
  0.980  0.980  0.997  0.997  0.997
    eigenvectors:
  0.250  0.750  0.000  0.000  0.000
  0.000  0.000  0.843  0.000  0.157
  0.000  0.000  0.078  0.500  0.422
  0.750  0.250  0.000  0.000  0.000
  0.000  0.000  0.078  0.500  0.422
    occupations:
  0.980  0.000  0.000  0.000  0.000
  0.000  0.997  0.000  0.000  0.000
  0.000  0.000  0.997  0.000  0.000
  0.000  0.000  0.000  0.980  0.000
  0.000  0.000  0.000  0.000  0.997
atomic mag. moment =    -1.198880
atom    7   Tr[ns(na)] (up, down, total) =   3.75352  4.95240  8.70592
   spin  1
    eigenvalues: 
  0.384  0.384  0.995  0.995  0.995
    eigenvectors:
  0.750  0.250  0.000  0.000  0.000
  0.000  0.000  0.161  0.500  0.339
  0.000  0.000  0.679  0.000  0.321
  0.250  0.750  0.000  0.000  0.000
  0.000  0.000  0.161  0.500  0.339
    occupations:
  0.384  0.001  0.001  0.000  0.001
  0.001  0.995  0.000  0.001  0.000
  0.001  0.000  0.995 -0.001  0.000
  0.000  0.001 -0.001  0.384  0.000
  0.001  0.000  0.000  0.000  0.995
   spin  2
    eigenvalues: 
  0.980  0.980  0.997  0.997  0.997
    eigenvectors:
  0.250  0.750  0.000  0.000  0.000
  0.000  0.000  0.078  0.500  0.422
  0.000  0.000  0.843  0.000  0.157
  0.750  0.250  0.000  0.000  0.000
  0.000  0.000  0.078  0.500  0.422
    occupations:
  0.980  0.000  0.000  0.000  0.000
  0.000  0.997  0.000  0.000  0.000
  0.000  0.000  0.997  0.000  0.000
  0.000  0.000  0.000  0.980  0.000
  0.000  0.000  0.000  0.000  0.997
atomic mag. moment =    -1.198880
atom    8   Tr[ns(na)] (up, down, total) =   3.75483  4.95168  8.70651
   spin  1
    eigenvalues: 
  0.384  0.384  0.995  0.995  0.995
    eigenvectors:
  0.859  0.141  0.000  0.000  0.000
  0.000  0.000  0.142  0.525  0.333
  0.000  0.000  0.193  0.474  0.333
  0.141  0.859  0.000  0.000  0.000
  0.000  0.000  0.665  0.001  0.333
    occupations:
  0.384  0.001  0.001  0.000  0.001
  0.001  0.995  0.000  0.001  0.000
  0.001  0.000  0.995 -0.001  0.000
  0.000  0.001 -0.001  0.384  0.000
  0.001  0.000  0.000  0.000  0.995
   spin  2
    eigenvalues: 
  0.980  0.980  0.997  0.997  0.997
    eigenvectors:
  1.000  0.000  0.000  0.000  0.000
  0.000  0.000  0.082  0.585  0.333
  0.000  0.000  0.270  0.397  0.333
  0.000  1.000  0.000  0.000  0.000
  0.000  0.000  0.649  0.018  0.333
    occupations:
  0.980  0.000  0.000  0.000  0.000
  0.000  0.997  0.000  0.000  0.000
  0.000  0.000  0.997  0.000  0.000
  0.000  0.000  0.000  0.980  0.000
  0.000  0.000  0.000  0.000  0.997
atomic mag. moment =    -1.196850
atom    9   Tr[ns(na)] (up, down, total) =   2.81118  2.81061  5.62179
   spin  1
    eigenvalues: 
  0.937  0.937  0.938
    eigenvectors:
  0.681  0.000  0.319
  0.159  0.500  0.341
  0.159  0.500  0.341
    occupations:
  0.937  0.000  0.000
  0.000  0.937  0.000
  0.000  0.000  0.937
   spin  2
    eigenvalues: 
  0.936  0.937  0.938
    eigenvectors:
  0.812  0.000  0.188
  0.094  0.500  0.406
  0.094  0.500  0.406
    occupations:
  0.936  0.000  0.000
  0.000  0.937  0.000
  0.000  0.000  0.937
atomic mag. moment =     0.000573
atom   10   Tr[ns(na)] (up, down, total) =   2.81115  2.81114  5.62230
   spin  1
    eigenvalues: 
  0.937  0.937  0.938
    eigenvectors:
  0.433  0.234  0.333
  0.559  0.108  0.333
  0.008  0.659  0.333
    occupations:
  0.937  0.000  0.000
  0.000  0.937  0.000
  0.000  0.000  0.937
   spin  2
    eigenvalues: 
  0.937  0.937  0.938
    eigenvectors:
  0.450  0.217  0.333
  0.546  0.121  0.333
  0.005  0.662  0.333
    occupations:
  0.937  0.000  0.000
  0.000  0.937  0.000
  0.000  0.000  0.937
atomic mag. moment =     0.000010
atom   11   Tr[ns(na)] (up, down, total) =   2.81118  2.81061  5.62179
   spin  1
    eigenvalues: 
  0.937  0.937  0.938
    eigenvectors:
  0.159  0.500  0.341
  0.159  0.500  0.341
  0.681  0.000  0.319
    occupations:
  0.937  0.000  0.000
  0.000  0.937  0.000
  0.000  0.000  0.937
   spin  2
    eigenvalues: 
  0.936  0.937  0.938
    eigenvectors:
  0.094  0.500  0.406
  0.094  0.500  0.406
  0.812  0.000  0.188
    occupations:
  0.937  0.000  0.000
  0.000  0.937  0.000
  0.000  0.000  0.936
atomic mag. moment =     0.000573
atom   12   Tr[ns(na)] (up, down, total) =   2.81118  2.81061  5.62179
   spin  1
    eigenvalues: 
  0.937  0.937  0.938
    eigenvectors:
  0.159  0.500  0.341
  0.681  0.000  0.319
  0.159  0.500  0.341
    occupations:
  0.937  0.000  0.000
  0.000  0.937  0.000
  0.000  0.000  0.937
   spin  2
    eigenvalues: 
  0.936  0.937  0.938
    eigenvectors:
  0.094  0.500  0.406
  0.812  0.000  0.188
  0.094  0.500  0.406
    occupations:
  0.937  0.000  0.000
  0.000  0.936  0.000
  0.000  0.000  0.937
atomic mag. moment =     0.000573
atom   13   Tr[ns(na)] (up, down, total) =   2.81118  2.81061  5.62179
   spin  1
    eigenvalues: 
  0.937  0.937  0.938
    eigenvectors:
  0.159  0.500  0.341
  0.159  0.500  0.341
  0.681  0.000  0.319
    occupations:
  0.937  0.000  0.000
  0.000  0.937  0.000
  0.000  0.000  0.937
   spin  2
    eigenvalues: 
  0.936  0.937  0.938
    eigenvectors:
  0.094  0.500  0.406
  0.094  0.500  0.406
  0.812  0.000  0.188
    occupations:
  0.937  0.000  0.000
  0.000  0.937  0.000
  0.000  0.000  0.936
atomic mag. moment =     0.000573
atom   14   Tr[ns(na)] (up, down, total) =   2.81118  2.81061  5.62179
   spin  1
    eigenvalues: 
  0.937  0.937  0.938
    eigenvectors:
  0.159  0.500  0.341
  0.681  0.000  0.319
  0.159  0.500  0.341
    occupations:
  0.937  0.000  0.000
  0.000  0.937  0.000
  0.000  0.000  0.937
   spin  2
    eigenvalues: 
  0.936  0.937  0.938
    eigenvectors:
  0.094  0.500  0.406
  0.812  0.000  0.188
  0.094  0.500  0.406
    occupations:
  0.937  0.000  0.000
  0.000  0.936  0.000
  0.000  0.000  0.937
atomic mag. moment =     0.000573
atom   15   Tr[ns(na)] (up, down, total) =   2.81115  2.81114  5.62230
   spin  1
    eigenvalues: 
  0.937  0.937  0.938
    eigenvectors:
  0.379  0.288  0.333
  0.597  0.070  0.333
  0.025  0.642  0.333
    occupations:
  0.937  0.000  0.000
  0.000  0.937  0.000
  0.000  0.000  0.937
   spin  2
    eigenvalues: 
  0.937  0.937  0.938
    eigenvectors:
  0.407  0.260  0.333
  0.578  0.089  0.333
  0.015  0.652  0.333
    occupations:
  0.937  0.000  0.000
  0.000  0.937  0.000
  0.000  0.000  0.937
atomic mag. moment =     0.000010
atom   16   Tr[ns(na)] (up, down, total) =   2.81118  2.81061  5.62179
   spin  1
    eigenvalues: 
  0.937  0.937  0.938
    eigenvectors:
  0.681  0.000  0.319
  0.159  0.500  0.341
  0.159  0.500  0.341
    occupations:
  0.937  0.000  0.000
  0.000  0.937  0.000
  0.000  0.000  0.937
   spin  2
    eigenvalues: 
  0.936  0.937  0.938
    eigenvectors:
  0.812  0.000  0.188
  0.094  0.500  0.406
  0.094  0.500  0.406
    occupations:
  0.936  0.000  0.000
  0.000  0.937  0.000
  0.000  0.000  0.937
atomic mag. moment =     0.000573
N of occupied +U levels = 114.6311280
 --- exit write_ns ---

 ------ SPIN UP ------------


          k = 0.0000 0.0000 0.0000 (  2733 PWs)   bands (ev):

    -8.0807  -6.6902  -6.6899  -6.6899  -6.6892  -6.6256  -6.6256  -6.6209
     4.0216   4.0216   4.0245   4.0303   5.3264   5.3264   5.3265   6.5135
     6.5135   6.5247   6.5247   6.5289   6.5562   6.5562   6.5590   7.9502
     7.9506   7.9506   7.9544   7.9544   7.9548   8.8217   8.8225   8.8225
     9.2526   9.2526   9.2597   9.5518   9.5518   9.6872   9.8722   9.8722
     9.9381   9.9381   9.9404  10.2215  10.2249  10.2249  10.4800  10.4800
    10.4828  10.5947  10.5953  10.5953  10.9081  10.9081  11.0357  11.0357
    11.0365  11.1759  11.2602  11.2602  11.2610  11.3797  11.3800  11.3800
    13.5418  13.5418  13.6007  13.6007  13.6010  13.6847  13.6847  13.6854
    13.7593  17.7969  17.7991  17.7999  17.7999

          k =-0.1250 0.1250 0.1250 (  2743 PWs)   bands (ev):

    -7.9052  -6.9289  -6.6845  -6.6843  -6.6832  -6.6385  -6.6380  -6.6343
     4.3402   4.3422   4.3475   4.5990   5.3405   5.3408   5.3428   6.4258
     6.4341   6.4358   6.6232   6.6656   6.6680   6.6870   6.7302   7.1899
     7.1906   7.2302   7.6833   7.6833   7.6959   7.9617   8.3946   8.4029
     9.2717   9.3285   9.3299   9.6700   9.8164   9.9538  10.0362  10.0374
    10.1049  10.2118  10.2152  10.2427  10.3695  10.5163  10.5352  10.5368
    10.5472  10.6311  10.6823  10.6842  10.8936  10.9891  11.1111  11.1115
    11.1144  11.1745  11.2552  11.2553  11.2768  11.3102  11.3387  11.3394
    13.2090  13.2752  13.2753  13.2892  13.3791  13.4169  13.4170  13.4612
    14.7659  17.5932  18.6764  18.6780  18.6783

          k = 0.2500-0.2500-0.2500 (  2764 PWs)   bands (ev):

    -7.4480  -7.4477  -6.6711  -6.6666  -6.6663  -6.6628  -6.6588  -6.6586
     5.0433   5.0482   5.0587   5.0625   5.0681   5.0691   6.0865   6.0893
     6.3136   6.3204   6.3788   6.3856   6.4557   6.4605   6.8443   6.8514
     7.0055   7.0099   7.3073   7.3089   7.4792   7.4815   7.6311   7.6326
     9.6198   9.6298   9.8059   9.8143   9.8777   9.8843  10.0132  10.0195
    10.1499  10.1560  10.2138  10.2185  10.5283  10.5299  10.6390  10.6396
    10.6555  10.6561  10.8660  10.8666  10.9599  10.9602  11.2403  11.2408
    11.2489  11.2501  11.2936  11.2944  11.3257  11.3268  11.4289  11.4298
    13.0334  13.0351  13.0399  13.0414  13.0482  13.0496  13.0586  13.0599
    16.4810  16.4823  19.6517  19.6552  19.7123

          k = 0.0000 0.0000 0.2500 (  2706 PWs)   bands (ev):

    -7.8520  -6.8113  -6.7556  -6.7545  -6.7544  -6.7537  -6.5721  -6.5684
     4.4833   4.4844   4.4870   4.4915   5.2283   5.5167   5.5167   6.5168
     6.5220   6.5407   6.5746   6.5851   6.6112   6.6158   6.6727   7.0553
     7.0555   7.1635   7.1635   7.4564   7.9659   7.9710   8.6443   8.6536
     8.9450   9.5249   9.6188   9.6202   9.8080   9.9736  10.0492  10.0506
    10.0895  10.1055  10.1788  10.2714  10.2735  10.3906  10.4054  10.5389
    10.5395  10.6075  10.6093  10.6528  10.9069  11.0038  11.0041  11.0449
    11.0513  11.1649  11.2374  11.2894  11.2901  11.3420  11.3431  11.3743
    12.8731  13.0333  13.0347  13.0377  13.5191  13.5622  13.6394  13.6402
    15.2124  18.5658  18.5671  18.5677  18.5681

          k = 0.3750-0.3750-0.1250 (  2734 PWs)   bands (ev):

    -7.5027  -7.1723  -6.9686  -6.7723  -6.7720  -6.5977  -6.5601  -6.5565
     4.9565   4.9599   4.9714   5.3011   5.4166   5.4928   5.5152   6.1684
     6.2033   6.2286   6.2574   6.5784   6.5848   6.7373   6.7410   6.8529
     6.8823   6.9160   6.9854   7.3497   7.3687   7.7126   7.7539   8.0082
     9.4469   9.6421   9.8130   9.8871   9.9474   9.9605  10.0297  10.1308
    10.1337  10.1624  10.2033  10.2808  10.3106  10.3161  10.4717  10.5057
    10.7268  10.7322  10.7368  10.7482  10.8725  10.9009  11.0347  11.0724
    11.1625  11.1900  11.2204  11.2520  11.3268  11.3306  11.3486  11.4050
    12.7336  12.7773  12.8294  12.9257  13.2305  13.2535  13.3592  13.4279
    16.6931  17.6009  18.6697  19.3615  19.3630

          k = 0.2500-0.2500 0.0000 (  2742 PWs)   bands (ev):

    -7.6405  -7.0179  -7.0170  -6.7229  -6.7217  -6.6054  -6.6031  -6.5490
     4.7639   4.7700   5.0601   5.0611   5.2582   5.2586   5.6953   5.9573
     6.2778   6.2943   6.5189   6.7112   6.7359   6.7379   6.9047   6.9061
     6.9244   7.1502   7.1540   7.1828   7.4450   7.4453   7.6241   8.1164
     9.6478   9.6508   9.7807   9.8403   9.8951   9.9011  10.0386  10.1041
    10.1263  10.2173  10.2227  10.2237  10.2238  10.3553  10.3576  10.5104
    10.7139  10.7457  10.7458  10.8227  10.8980  11.0907  11.0907  11.1094
    11.2041  11.2046  11.2270  11.2382  11.2740  11.3402  11.4004  11.4008
    13.0367  13.0414  13.0516  13.0529  13.1093  13.1462  13.1470  13.2785
    16.0064  18.0595  18.0611  19.3763  19.3790

          k = 0.0000 0.0000-0.5000 (  2762 PWs)   bands (ev):

    -7.3127  -7.3109  -6.8196  -6.8172  -6.8170  -6.8167  -6.5178  -6.5135
     5.0105   5.0156   5.0186   5.0226   5.7633   5.7651   6.0920   6.0962
     6.0983   6.1020   6.3962   6.3993   6.6387   6.6469   6.6738   6.6792
     6.7137   6.7191   6.7207   6.7255   8.1424   8.1450   8.1540   8.1560
     9.2342   9.2457   9.9430   9.9460  10.0237  10.0263  10.0333  10.0416
    10.0437  10.0447  10.1589  10.1656  10.3398  10.3457  10.4880  10.4921
    10.5134  10.5147  10.5732  10.5779  10.9069  10.9079  10.9994  11.0009
    11.1431  11.1441  11.2214  11.2224  11.3310  11.3321  11.3357  11.3365
    12.4567  12.4578  12.7149  12.7158  13.5127  13.5134  13.6124  13.6133
    17.6646  17.6668  19.2500  19.2510  19.2518

          k = 0.0000 0.2500-0.5000 (  2740 PWs)   bands (ev):

    -7.1542  -7.1521  -7.1516  -7.1515  -6.5844  -6.5792  -6.5789  -6.5749
     5.2743   5.2747   5.2760   5.3229   5.3735   5.5354   5.5390   5.6493
     6.2166   6.2470   6.2495   6.2811   6.6099   6.6144   6.6270   6.7549
     6.8925   7.2611   7.2617   7.4543   7.4712   7.4980   7.4998   7.5519
     9.7023   9.7297   9.7297   9.7988   9.9808  10.0316  10.0321  10.0614
    10.1116  10.2640  10.2804  10.2837  10.3384  10.3391  10.3939  10.4587
    10.6098  10.6574  10.6580  10.6848  10.9428  10.9430  10.9637  10.9852
    11.1691  11.1803  11.1811  11.2749  11.2903  11.2944  11.3609  11.3611
    12.7696  12.8841  12.8849  12.9981  13.1493  13.1931  13.1943  13.2386
    18.0167  18.0343  18.0360  18.0546  20.8593

          k = 0.1250 0.1250 0.1250 (  2743 PWs)   bands (ev):

    -7.9052  -6.9292  -6.6857  -6.6857  -6.6840  -6.6369  -6.6369  -6.6333
     4.3394   4.3394   4.3440   4.6040   5.3394   5.3394   5.3397   6.4701
     6.4701   6.4736   6.6125   6.6125   6.6179   6.6885   6.6885   7.2073
     7.2073   7.2088   7.7015   7.7015   7.7016   7.9679   8.4475   8.4475
     9.2509   9.2538   9.2538   9.6100   9.6100   9.9949  10.0582  10.0582
    10.0617  10.2698  10.2719  10.2719  10.5972  10.5977  10.5977  10.6185
    10.6185  10.7191  10.7191  10.7200  10.9102  10.9102  10.9360  10.9360
    10.9367  11.0292  11.2525  11.2525  11.2532  11.3899  11.3904  11.3904
    13.3298  13.3298  13.3457  13.3457  13.3464  13.3532  13.3532  13.3541
    14.7662  17.5947  18.6750  18.6752  18.6752

          k =-0.2500-0.2500-0.2500 (  2764 PWs)   bands (ev):

    -7.4522  -7.4438  -6.6771  -6.6771  -6.6723  -6.6526  -6.6526  -6.6521
     5.0031   5.0031   5.0075   5.1087   5.1087   5.1093   6.0721   6.1140
     6.2502   6.2502   6.2549   6.6868   6.6870   6.6870   6.7403   6.7403
     6.7460   6.9715   6.9715   7.4430   7.4430   7.4430   7.8593   7.8593
     9.4786   9.4830   9.4830   9.6659   9.6659  10.1094  10.1135  10.1135
    10.1176  10.4454  10.4457  10.4457  10.5011  10.5011  10.5012  10.7229
    10.7229  10.8387  10.8387  10.8387  10.8674  11.0528  11.0533  11.0533
    11.2408  11.2408  11.2415  11.2968  11.2968  11.3976  11.3983  11.3983
    13.0351  13.0351  13.0363  13.0520  13.0520  13.0668  13.0668  13.0679
    16.4092  16.5580  19.6289  19.6289  19.6362

          k =-0.3750-0.1250-0.3750 (  2734 PWs)   bands (ev):

    -7.5028  -7.1725  -6.9686  -6.7724  -6.7723  -6.5973  -6.5598  -6.5564
     4.9566   4.9664   4.9675   5.2784   5.4317   5.4922   5.4945   6.2144
     6.2198   6.2207   6.2575   6.6447   6.6576   6.6602   6.6902   6.6929
     6.8203   7.0734   7.0754   7.2627   7.3737   7.7463   7.7558   8.0449
     9.3438   9.5350   9.7496   9.7533   9.7769  10.0534  10.0882  10.0913
    10.2814  10.2822  10.4135  10.4161  10.4367  10.5475  10.5495  10.5532
    10.5653  10.6454  10.6458  10.6458  10.8370  10.8760  10.8763  10.9554
    11.0665  11.2384  11.2700  11.2969  11.2969  11.3556  11.3561  11.4185
    12.6888  12.8346  12.8793  12.8805  13.2762  13.3306  13.3378  13.3389
    16.6924  17.6035  18.6691  19.3588  19.3593

          k = 0.3750-0.1250 0.3750 (  2734 PWs)   bands (ev):

    -7.5027  -7.1724  -6.9686  -6.7722  -6.7720  -6.5977  -6.5601  -6.5566
     4.9624   4.9676   4.9682   5.2375   5.4936   5.4971   5.4997   6.1158
     6.2224   6.2227   6.3383   6.5590   6.5608   6.6530   6.8131   6.8134
     6.8215   7.0352   7.0369   7.1474   7.4984   7.7387   7.7661   7.9931
     9.3718   9.5480   9.9313   9.9396  10.0115  10.0160  10.0354  10.0382
    10.0507  10.1710  10.2063  10.2085  10.3946  10.4380  10.4924  10.4938
    10.6542  10.6916  10.6930  10.7066  10.8914  10.9439  11.0910  11.0914
    11.2113  11.2123  11.2280  11.2650  11.2723  11.2742  11.3433  11.3443
    12.7357  12.7947  12.8765  12.8776  13.2500  13.3370  13.3382  13.3493
    16.6926  17.6020  18.6713  19.3597  19.3601

          k =-0.2500 0.0000-0.2500 (  2742 PWs)   bands (ev):

    -7.6405  -7.0180  -7.0171  -6.7235  -6.7221  -6.6046  -6.6025  -6.5490
     4.7631   4.7667   5.0696   5.0754   5.2362   5.2373   5.6972   5.9596
     6.3064   6.3084   6.5768   6.6666   6.6718   6.7814   6.8500   6.9131
     7.0101   7.1531   7.1564   7.1981   7.1995   7.4810   7.8272   8.1143
     9.5469   9.6007   9.6257   9.6307   9.7659  10.0668  10.0697  10.1242
    10.2366  10.2375  10.2993  10.3800  10.4426  10.5530  10.5543  10.5560
    10.6283  10.6582  10.6605  10.7386  10.7599  10.8165  11.0451  11.0452
    11.1006  11.2659  11.2663  11.3353  11.3651  11.3657  11.3812  11.4023
    13.0394  13.0420  13.0491  13.0504  13.0592  13.2015  13.2022  13.2311
    16.0076  18.0592  18.0615  19.3717  19.3748

 ------ SPIN DOWN ----------


          k = 0.0000 0.0000 0.0000 (  2733 PWs)   bands (ev):

    -8.0798  -6.6893  -6.6888  -6.6886  -6.6886  -6.6240  -6.6240  -6.6205
     4.0222   4.0222   4.0250   4.0314   5.3270   5.3271   5.3271   6.5176
     6.5176   6.5265   6.5265   6.5293   6.5582   6.5582   6.5595   7.9508
     7.9515   7.9515   7.9553   7.9553   7.9560   8.8246   8.8246   8.8250
     9.2536   9.2536   9.2608   9.5553   9.5553   9.6895   9.8698   9.8698
     9.9385   9.9385   9.9405  10.2234  10.2245  10.2245  10.4809  10.4809
    10.4829  10.5952  10.5956  10.5956  10.9035  10.9035  11.0328  11.0328
    11.0333  11.1725  11.2542  11.2542  11.2610  11.3746  11.3772  11.3772
    13.5393  13.5393  13.5975  13.5975  13.6012  13.6809  13.6809  13.6854
    13.7595  17.7970  17.7992  17.8001  17.8001

          k =-0.1250 0.1250 0.1250 (  2743 PWs)   bands (ev):

    -7.9043  -6.9279  -6.6831  -6.6828  -6.6828  -6.6369  -6.6368  -6.6339
     4.3408   4.3429   4.3485   4.5998   5.3415   5.3416   5.3435   6.4287
     6.4369   6.4372   6.6259   6.6683   6.6691   6.6892   6.7331   7.1903
     7.1919   7.2295   7.6825   7.6837   7.6958   7.9628   8.3947   8.4024
     9.2751   9.3314   9.3315   9.6736   9.8187   9.9568  10.0382  10.0389
    10.1068  10.2142  10.2156  10.2435  10.3682  10.5142  10.5362  10.5363
    10.5464  10.6302  10.6828  10.6840  10.8901  10.9868  11.1056  11.1083
    11.1136  11.1710  11.2507  11.2512  11.2739  11.3067  11.3324  11.3385
    13.2058  13.2710  13.2727  13.2872  13.3767  13.4140  13.4141  13.4586
    14.7662  17.5934  18.6766  18.6781  18.6786

          k = 0.2500-0.2500-0.2500 (  2764 PWs)   bands (ev):

    -7.4471  -7.4468  -6.6680  -6.6656  -6.6636  -6.6618  -6.6612  -6.6576
     5.0470   5.0482   5.0607   5.0631   5.0654   5.0704   6.0875   6.0901
     6.3187   6.3215   6.3836   6.3863   6.4576   6.4613   6.8507   6.8522
     7.0072   7.0104   7.3038   7.3094   7.4767   7.4823   7.6277   7.6334
     9.6291   9.6300   9.8116   9.8145   9.8797   9.8847  10.0175  10.0196
    10.1542  10.1562  10.2184  10.2186  10.5282  10.5305  10.6346  10.6399
    10.6443  10.6564  10.8647  10.8673  10.9576  10.9609  11.2346  11.2413
    11.2432  11.2500  11.2888  11.2946  11.3183  11.3268  11.4253  11.4299
    13.0226  13.0294  13.0351  13.0416  13.0441  13.0497  13.0545  13.0601
    16.4814  16.4826  19.6509  19.6516  19.7123

          k = 0.0000 0.0000 0.2500 (  2706 PWs)   bands (ev):

    -7.8512  -6.8100  -6.7544  -6.7539  -6.7532  -6.7531  -6.5706  -6.5677
     4.4840   4.4850   4.4877   4.4928   5.2294   5.5174   5.5174   6.5228
     6.5234   6.5430   6.5786   6.5863   6.6138   6.6163   6.6735   7.0563
     7.0565   7.1603   7.1636   7.4555   7.9668   7.9719   8.6457   8.6547
     8.9476   9.5281   9.6229   9.6233   9.8076   9.9735  10.0518  10.0520
    10.0916  10.1065  10.1804  10.2725  10.2729  10.3913  10.4048  10.5379
    10.5402  10.6078  10.6086  10.6538  10.9019  10.9983  11.0032  11.0409
    11.0498  11.1612  11.2331  11.2845  11.2882  11.3352  11.3430  11.3707
    12.8692  13.0232  13.0347  13.0371  13.5165  13.5600  13.6345  13.6403
    15.2128  18.5660  18.5675  18.5679  18.5683

          k = 0.3750-0.3750-0.1250 (  2734 PWs)   bands (ev):

    -7.5018  -7.1714  -6.9675  -6.7716  -6.7708  -6.5965  -6.5586  -6.5559
     4.9578   4.9611   4.9726   5.3014   5.4191   5.4938   5.5144   6.1696
     6.2047   6.2307   6.2598   6.5822   6.5853   6.7383   6.7431   6.8549
     6.8831   6.9156   6.9858   7.3496   7.3698   7.7140   7.7535   8.0078
     9.4492   9.6448   9.8174   9.8892   9.9501   9.9631  10.0316  10.1332
    10.1356  10.1632  10.2050  10.2816  10.3088  10.3168  10.4719  10.5064
    10.7272  10.7328  10.7346  10.7491  10.8699  10.8966  11.0305  11.0694
    11.1594  11.1861  11.2171  11.2482  11.3237  11.3275  11.3458  11.4019
    12.7282  12.7724  12.8261  12.9222  13.2269  13.2510  13.3561  13.4254
    16.6935  17.6013  18.6700  19.3619  19.3637

          k = 0.2500-0.2500 0.0000 (  2742 PWs)   bands (ev):

    -7.6396  -7.0166  -7.0163  -6.7215  -6.7210  -6.6040  -6.6024  -6.5479
     4.7646   4.7710   5.0608   5.0640   5.2577   5.2589   5.6961   5.9585
     6.2804   6.2966   6.5217   6.7127   6.7385   6.7405   6.9072   6.9092
     6.9244   7.1517   7.1549   7.1821   7.4410   7.4448   7.6242   8.1175
     9.6521   9.6532   9.7843   9.8430   9.8986   9.9006  10.0378  10.1065
    10.1288  10.2215  10.2233  10.2251  10.2252  10.3546  10.3577  10.5105
    10.7110  10.7435  10.7454  10.8230  10.8937  11.0867  11.0894  11.1056
    11.1971  11.2035  11.2240  11.2348  11.2726  11.3372  11.3963  11.3996
    13.0266  13.0402  13.0491  13.0527  13.1055  13.1401  13.1467  13.2756
    16.0068  18.0598  18.0615  19.3766  19.3793

          k = 0.0000 0.0000-0.5000 (  2762 PWs)   bands (ev):

    -7.3113  -7.3103  -6.8183  -6.8166  -6.8159  -6.8157  -6.5162  -6.5128
     5.0128   5.0158   5.0220   5.0228   5.7630   5.7655   6.0935   6.0972
     6.0990   6.1031   6.3970   6.3997   6.6438   6.6471   6.6764   6.6794
     6.7152   6.7198   6.7210   6.7265   8.1436   8.1461   8.1543   8.1573
     9.2397   9.2458   9.9451   9.9462  10.0254  10.0265  10.0391  10.0413
    10.0419  10.0448  10.1640  10.1659  10.3446  10.3461  10.4922  10.4923
    10.5099  10.5149  10.5780  10.5785  10.8963  10.9080  10.9934  11.0009
    11.1345  11.1443  11.2146  11.2227  11.3241  11.3282  11.3321  11.3368
    12.4448  12.4578  12.7068  12.7158  13.5078  13.5135  13.6074  13.6134
    17.6650  17.6675  19.2503  19.2512  19.2528

          k = 0.0000 0.2500-0.5000 (  2740 PWs)   bands (ev):

    -7.1532  -7.1512  -7.1509  -7.1502  -6.5815  -6.5795  -6.5777  -6.5744
     5.2757   5.2762   5.2798   5.3232   5.3766   5.5370   5.5370   5.6481
     6.2202   6.2476   6.2502   6.2797   6.6145   6.6153   6.6282   6.7552
     6.8963   7.2599   7.2633   7.4571   7.4714   7.4991   7.5005   7.5501
     9.7062   9.7333   9.7339   9.8010   9.9810  10.0320  10.0324  10.0653
    10.1127  10.2666  10.2834  10.2839  10.3388  10.3398  10.3929  10.4598
    10.6107  10.6573  10.6574  10.6852  10.9387  10.9403  10.9596  10.9817
    11.1661  11.1726  11.1812  11.2713  11.2866  11.2908  11.3573  11.3581
    12.7648  12.8764  12.8850  12.9949  13.1456  13.1867  13.1943  13.2358
    18.0159  18.0348  18.0361  18.0568  20.8575

          k = 0.1250 0.1250 0.1250 (  2743 PWs)   bands (ev):

    -7.9044  -6.9282  -6.6836  -6.6834  -6.6834  -6.6362  -6.6362  -6.6330
     4.3401   4.3401   4.3449   4.6049   5.3402   5.3402   5.3406   6.4731
     6.4731   6.4741   6.6166   6.6166   6.6183   6.6912   6.6912   7.2069
     7.2069   7.2091   7.7003   7.7003   7.7020   7.9690   8.4463   8.4463
     9.2568   9.2568   9.2569   9.6142   9.6142   9.9978  10.0613  10.0613
    10.0618  10.2688  10.2711  10.2711  10.5972  10.5986  10.5986  10.6159
    10.6159  10.7189  10.7189  10.7203  10.9068  10.9068  10.9340  10.9340
    10.9350  11.0252  11.2464  11.2464  11.2533  11.3846  11.3877  11.3877
    13.3252  13.3252  13.3409  13.3409  13.3465  13.3511  13.3511  13.3541
    14.7665  17.5950  18.6746  18.6756  18.6756

          k =-0.2500-0.2500-0.2500 (  2764 PWs)   bands (ev):

    -7.4516  -7.4426  -6.6721  -6.6716  -6.6716  -6.6552  -6.6552  -6.6517
     5.0078   5.0078   5.0091   5.1048   5.1048   5.1099   6.0757   6.1122
     6.2566   6.2573   6.2573   6.6824   6.6824   6.6852   6.7465   6.7469
     6.7469   6.9762   6.9762   7.4384   7.4384   7.4433   7.8559   7.8559
     9.4876   9.4878   9.4878   9.6707   9.6707  10.1134  10.1177  10.1177
    10.1177  10.4363  10.4396  10.4396  10.5038  10.5038  10.5038  10.7171
    10.7171  10.8396  10.8402  10.8402  10.8623  11.0533  11.0538  11.0538
    11.2347  11.2347  11.2416  11.2971  11.2971  11.3923  11.3956  11.3956
    13.0274  13.0274  13.0363  13.0490  13.0490  13.0627  13.0627  13.0680
    16.4084  16.5598  19.6297  19.6305  19.6305

          k =-0.3750-0.1250-0.3750 (  2734 PWs)   bands (ev):

    -7.5019  -7.1715  -6.9675  -6.7716  -6.7708  -6.5964  -6.5585  -6.5557
     4.9573   4.9681   4.9683   5.2800   5.4330   5.4928   5.4954   6.2169
     6.2218   6.2238   6.2577   6.6481   6.6608   6.6622   6.6890   6.6922
     6.8233   7.0727   7.0745   7.2627   7.3744   7.7473   7.7551   8.0441
     9.3483   9.5388   9.7563   9.7563   9.7800  10.0553  10.0917  10.0919
    10.2801  10.2831  10.4147  10.4157  10.4362  10.5471  10.5471  10.5556
    10.5626  10.6441  10.6456  10.6462  10.8347  10.8725  10.8761  10.9518
    11.0641  11.2356  11.2661  11.2933  11.2943  11.3506  11.3541  11.4152
    12.6842  12.8286  12.8730  12.8805  13.2730  13.3251  13.3348  13.3389
    16.6929  17.6040  18.6695  19.3592  19.3595

          k = 0.3750-0.1250 0.3750 (  2734 PWs)   bands (ev):

    -7.5018  -7.1715  -6.9675  -6.7715  -6.7706  -6.5966  -6.5587  -6.5559
     4.9632   4.9689   4.9695   5.2400   5.4930   5.4975   5.5003   6.1168
     6.2232   6.2254   6.3396   6.5614   6.5637   6.6556   6.8134   6.8162
     6.8236   7.0339   7.0356   7.1514   7.4962   7.7389   7.7661   7.9932
     9.3755   9.5521   9.9385   9.9395  10.0152  10.0169  10.0377  10.0395
    10.0514  10.1727  10.2089  10.2095  10.3921  10.4376  10.4922  10.4923
    10.6520  10.6927  10.6933  10.7069  10.8898  10.9418  11.0847  11.0905
    11.2038  11.2110  11.2259  11.2601  11.2700  11.2720  11.3372  11.3437
    12.7300  12.7904  12.8697  12.8776  13.2469  13.3295  13.3382  13.3482
    16.6930  17.6023  18.6719  19.3600  19.3603

          k =-0.2500 0.0000-0.2500 (  2742 PWs)   bands (ev):

    -7.6396  -7.0167  -7.0164  -6.7216  -6.7213  -6.6037  -6.6019  -6.5479
     4.7638   4.7676   5.0706   5.0763   5.2378   5.2382   5.6977   5.9617
     6.3093   6.3104   6.5810   6.6692   6.6718   6.7857   6.8500   6.9170
     7.0082   7.1539   7.1575   7.1970   7.1987   7.4787   7.8253   8.1154
     9.5529   9.6043   9.6319   9.6324   9.7695  10.0696  10.0703  10.1269
    10.2356  10.2389  10.3020  10.3787  10.4427  10.5507  10.5539  10.5552
    10.6244  10.6594  10.6608  10.7333  10.7594  10.8151  11.0419  11.0443
    11.0963  11.2604  11.2647  11.3317  11.3601  11.3633  11.3792  11.4017
    13.0279  13.0416  13.0466  13.0503  13.0558  13.1947  13.2020  13.2285
    16.0080  18.0595  18.0620  19.3720  19.3744

     the Fermi energy is    11.9504 ev

!    total energy              =    -942.06091265 Ry
     Harris-Foulkes estimate   =    -942.06091264 Ry
     estimated scf accuracy    <          7.7E-09 Ry

     The total energy is the sum of the following terms:

     one-electron contribution =     -56.33482067 Ry
     hartree contribution      =     175.71708933 Ry
     xc contribution           =    -297.54094376 Ry
     ewald contribution        =    -763.85740583 Ry
     Hubbard energy            =      -0.04483172 Ry
     smearing contrib. (-TS)   =       0.00000000 Ry

     total magnetization       =     0.00 Bohr mag/cell
     absolute magnetization    =    12.28 Bohr mag/cell

     convergence has been achieved in   7 iterations

     Writing output data file nio.save
 
     init_run     :     14.15s CPU     16.30s WALL (       1 calls)
     electrons    :    264.30s CPU    280.54s WALL (       1 calls)

     Called by init_run:
     wfcinit      :      0.70s CPU      1.50s WALL (       1 calls)
     potinit      :      1.16s CPU      1.34s WALL (       1 calls)

     Called by electrons:
     c_bands      :     97.48s CPU    103.05s WALL (       7 calls)
     sum_band     :     91.60s CPU     94.06s WALL (       7 calls)
     v_of_rho     :      7.34s CPU      8.30s WALL (       8 calls)
     newd         :     74.91s CPU     82.90s WALL (       8 calls)
     mix_rho      :      1.07s CPU      1.21s WALL (       7 calls)

     Called by c_bands:
     init_us_2    :      1.03s CPU      1.12s WALL (     105 calls)
     cegterg      :     94.51s CPU     99.44s WALL (      49 calls)

     Called by *egterg:
     h_psi        :     68.02s CPU     70.79s WALL (     214 calls)
     s_psi        :      5.96s CPU      5.96s WALL (     221 calls)
     g_psi        :      0.31s CPU      0.32s WALL (     165 calls)
     cdiaghg      :      6.02s CPU      6.06s WALL (     207 calls)

     Called by h_psi:
     add_vuspsi   :      5.60s CPU      5.58s WALL (     214 calls)

     General routines
     calbec       :     10.02s CPU     10.01s WALL (     533 calls)
     fft          :      6.31s CPU      7.16s WALL (     236 calls)
     ffts         :      0.10s CPU      0.10s WALL (      30 calls)
     fftw         :     37.10s CPU     40.81s WALL (   22001 calls)
     interpolate  :      1.11s CPU      1.41s WALL (      30 calls)
     davcio       :      0.02s CPU      2.09s WALL (     308 calls)
 
     Parallel routines
     fft_scatter  :      7.12s CPU      8.64s WALL (   22267 calls)
     EXX routines
 
     PWSCF        :  4m38.81s CPU     4m57.35s WALL

 
   This run was terminated on:  16:46: 1  16Jun2012            

=------------------------------------------------------------------------------=
   JOB DONE.
=------------------------------------------------------------------------------=
