
     Program PWSCF v.5.0        starts on 16Jun2012 at 16:29:44 

     This program is part of the open-source Quantum ESPRESSO suite
     for quantum simulation of materials; please cite
         "P. Giannozzi et al., J. Phys.:Condens. Matter 21 395502 (2009);
          URL http://www.quantum-espresso.org", 
     in publications or presentations arising from this work. More details at
     http://www.quantum-espresso.org/quote.php

     Parallel version (MPI), running on     4 processors
     K-points division:     npool     =    4

     Current dimensions of program PWSCF are:
     Max number of different atomic species (ntypx) = 10
     Max number of k-points (npk) =  40000
     Max angular momentum in pseudopotentials (lmaxx) =  3
     Waiting for input...
     Reading input from standard input
               file Ni.pbe-nd-rrkjus.UPF: wavefunction(s)  4S renormalized
               file Ni.pbe-nd-rrkjus.UPF: wavefunction(s)  4S renormalized
               file Ni.pbe-nd-rrkjus.UPF: wavefunction(s)  4S renormalized
               file O.pbe-rrkjus.UPF: wavefunction(s)  2S renormalized

     Subspace diagonalization in iterative solution of the eigenvalue problem:
     a serial algorithm will be used

 
     G-vector sticks info
     --------------------
     sticks:   dense  smooth     PW     G-vecs:    dense   smooth      PW
     Sum        2587    1039    301                86547    22075    3479
 


     bravais-lattice index     =            0
     lattice parameter (alat)  =       7.9000  a.u.
     unit-cell volume          =     986.0780 (a.u.)^3
     number of atoms/cell      =           16
     number of atomic types    =            4
     number of electrons       =       128.00
     number of Kohn-Sham states=           77
     kinetic-energy cutoff     =      30.0000  Ry
     charge density cutoff     =     300.0000  Ry
     convergence threshold     =      1.0E-08
     mixing beta               =       0.3000
     number of iterations used =            8  plain     mixing
     Exchange-correlation      =  SLA  PW   PBE  PBE ( 1 4 3 4 0)
     EXX-fraction              =        0.00

     celldm(1)=   7.900000  celldm(2)=   0.000000  celldm(3)=   0.000000
     celldm(4)=   0.000000  celldm(5)=   0.000000  celldm(6)=   0.000000

     crystal axes: (cart. coord. in units of alat)
               a(1) = (   1.000000   1.000000   0.000000 )  
               a(2) = (   1.000000   0.000000   1.000000 )  
               a(3) = (   0.000000   1.000000   1.000000 )  

     reciprocal axes: (cart. coord. in units 2 pi/alat)
               b(1) = (  0.500000  0.500000 -0.500000 )  
               b(2) = (  0.500000 -0.500000  0.500000 )  
               b(3) = ( -0.500000  0.500000  0.500000 )  


     PseudoPot. # 1 for Ni read from file:
     ../pseudo/Ni.pbe-nd-rrkjus.UPF
     MD5 check sum: 8081f0a005c9a5470caab1a58e82ecb2
     Pseudo is Ultrasoft + core correction, Zval = 10.0
     Generated by new atomic code, or converted to UPF format
     Using radial grid of 1203 points,  6 beta functions with: 
                l(1) =   0
                l(2) =   0
                l(3) =   1
                l(4) =   1
                l(5) =   2
                l(6) =   2
     Q(r) pseudized with 0 coefficients 


     PseudoPot. # 2 for Ni read from file:
     ../pseudo/Ni.pbe-nd-rrkjus.UPF
     MD5 check sum: 8081f0a005c9a5470caab1a58e82ecb2
     Pseudo is Ultrasoft + core correction, Zval = 10.0
     Generated by new atomic code, or converted to UPF format
     Using radial grid of 1203 points,  6 beta functions with: 
                l(1) =   0
                l(2) =   0
                l(3) =   1
                l(4) =   1
                l(5) =   2
                l(6) =   2
     Q(r) pseudized with 0 coefficients 


     PseudoPot. # 3 for Ni read from file:
     ../pseudo/Ni.pbe-nd-rrkjus.UPF
     MD5 check sum: 8081f0a005c9a5470caab1a58e82ecb2
     Pseudo is Ultrasoft + core correction, Zval = 10.0
     Generated by new atomic code, or converted to UPF format
     Using radial grid of 1203 points,  6 beta functions with: 
                l(1) =   0
                l(2) =   0
                l(3) =   1
                l(4) =   1
                l(5) =   2
                l(6) =   2
     Q(r) pseudized with 0 coefficients 


     PseudoPot. # 4 for O  read from file:
     ../pseudo/O.pbe-rrkjus.UPF
     MD5 check sum: 390ba29e75625707450f3bd3f0eb6be9
     Pseudo is Ultrasoft, Zval =  6.0
     Generated by new atomic code, or converted to UPF format
     Using radial grid of 1269 points,  4 beta functions with: 
                l(1) =   0
                l(2) =   0
                l(3) =   1
                l(4) =   1
     Q(r) pseudized with 0 coefficients 


     atomic species   valence    mass     pseudopotential
        Ni1           10.00     1.00000     Ni( 1.00)
        Ni2           10.00     1.00000     Ni( 1.00)
        Ni3           10.00     1.00000     Ni( 1.00)
        O1             6.00     1.00000     O ( 1.00)

     Starting magnetic structure 
     atomic species   magnetization
        Ni1          0.500
        Ni2          0.500
        Ni3         -0.500
        O1           0.000
 -----
     simplified LDA+U calculation, Hubbard_lmax = 2
     atomic species  L   Hubbard U  Hubbard alpha
        Ni1          2    0.000000   -0.150000
        Ni2          2    0.000000    0.000000
        Ni3          2    0.000000    0.000000
        O1           1    0.000000    0.000000
 -----

     12 Sym. Ops., with inversion, found



   Cartesian axes

     site n.     atom                  positions (alat units)
         1           Ni1 tau(   1) = (   0.0000000   0.0000000   0.0000000  )
         2           Ni2 tau(   2) = (   1.0000000   0.5000000   0.5000000  )
         3           Ni2 tau(   3) = (   0.5000000   1.0000000   0.5000000  )
         4           Ni2 tau(   4) = (   0.5000000   0.5000000   1.0000000  )
         5           Ni3 tau(   5) = (   0.5000000   0.5000000   0.0000000  )
         6           Ni3 tau(   6) = (   0.5000000   0.0000000   0.5000000  )
         7           Ni3 tau(   7) = (   0.0000000   0.5000000   0.5000000  )
         8           Ni3 tau(   8) = (   1.0000000   1.0000000   1.0000000  )
         9           O1  tau(   9) = (   0.0000000   0.0000000   0.5000000  )
        10           O1  tau(  10) = (   0.5000000   0.5000000   0.5000000  )
        11           O1  tau(  11) = (   0.0000000   0.5000000   1.0000000  )
        12           O1  tau(  12) = (   0.5000000   0.0000000   1.0000000  )
        13           O1  tau(  13) = (   1.0000000   0.5000000   1.0000000  )
        14           O1  tau(  14) = (   0.5000000   1.0000000   1.0000000  )
        15           O1  tau(  15) = (   0.5000000   0.5000000   1.5000000  )
        16           O1  tau(  16) = (   1.0000000   1.0000000   1.5000000  )

     number of k points=    26  gaussian smearing, width (Ry)=  0.0100
                       cart. coord. in units 2pi/alat
        k(    1) = (   0.0000000   0.0000000   0.0000000), wk =   0.0156250
        k(    2) = (  -0.1250000   0.1250000   0.1250000), wk =   0.0937500
        k(    3) = (   0.2500000  -0.2500000  -0.2500000), wk =   0.0468750
        k(    4) = (   0.0000000   0.0000000   0.2500000), wk =   0.0937500
        k(    5) = (   0.3750000  -0.3750000  -0.1250000), wk =   0.1875000
        k(    6) = (   0.2500000  -0.2500000   0.0000000), wk =   0.0937500
        k(    7) = (   0.0000000   0.0000000  -0.5000000), wk =   0.0468750
        k(    8) = (   0.0000000   0.2500000  -0.5000000), wk =   0.0937500
        k(    9) = (   0.1250000   0.1250000   0.1250000), wk =   0.0312500
        k(   10) = (  -0.2500000  -0.2500000  -0.2500000), wk =   0.0156250
        k(   11) = (  -0.3750000  -0.1250000  -0.3750000), wk =   0.0937500
        k(   12) = (   0.3750000  -0.1250000   0.3750000), wk =   0.0937500
        k(   13) = (  -0.2500000   0.0000000  -0.2500000), wk =   0.0937500
        k(   14) = (   0.0000000   0.0000000   0.0000000), wk =   0.0156250
        k(   15) = (  -0.1250000   0.1250000   0.1250000), wk =   0.0937500
        k(   16) = (   0.2500000  -0.2500000  -0.2500000), wk =   0.0468750
        k(   17) = (   0.0000000   0.0000000   0.2500000), wk =   0.0937500
        k(   18) = (   0.3750000  -0.3750000  -0.1250000), wk =   0.1875000
        k(   19) = (   0.2500000  -0.2500000   0.0000000), wk =   0.0937500
        k(   20) = (   0.0000000   0.0000000  -0.5000000), wk =   0.0468750
        k(   21) = (   0.0000000   0.2500000  -0.5000000), wk =   0.0937500
        k(   22) = (   0.1250000   0.1250000   0.1250000), wk =   0.0312500
        k(   23) = (  -0.2500000  -0.2500000  -0.2500000), wk =   0.0156250
        k(   24) = (  -0.3750000  -0.1250000  -0.3750000), wk =   0.0937500
        k(   25) = (   0.3750000  -0.1250000   0.3750000), wk =   0.0937500
        k(   26) = (  -0.2500000   0.0000000  -0.2500000), wk =   0.0937500

     Dense  grid:    86547 G-vectors     FFT dimensions: (  64,  64,  64)

     Smooth grid:    22075 G-vectors     FFT dimensions: (  40,  40,  40)

     Largest allocated arrays     est. size (Mb)     dimensions
        Kohn-Sham Wavefunctions         3.25 Mb     (   2764,   77)
        Atomic wavefunctions            3.37 Mb     (   2764,   80)
        NL pseudopotentials             8.77 Mb     (   2764,  208)
        Each V/rho on FFT grid          8.00 Mb     ( 262144,   2)
        Each G-vector array             0.66 Mb     (  86547)
        G-vector shells                 0.00 Mb     (    635)
     Largest temporary arrays     est. size (Mb)     dimensions
        Auxiliary wavefunctions        12.99 Mb     (   2764,  308)
        Each subspace H/S matrix        1.45 Mb     ( 308, 308)
        Each <psi_i|beta_j> matrix      0.24 Mb     (    208,   77)
        Arrays for rho mixing          32.00 Mb     ( 262144,   8)

     Check: negative/imaginary core charge=   -0.000047    0.000000

     The initial density is read from file :
     ./temp/nio.save/charge-density.dat

     Number of +U iterations with fixed ns =  0
     Starting occupations:
 --- enter write_ns ---
 LDA+U parameters:
U( 1)     =  0.00000000
alpha( 1) = -0.15000000
U( 2)     =  0.00000000
alpha( 2) =  0.00000000
U( 3)     =  0.00000000
alpha( 3) =  0.00000000
U( 4)     =  0.00000000
alpha( 4) =  0.00000000
atom    1   Tr[ns(na)] (up, down, total) =   4.95240  3.75362  8.70602
   spin  1
    eigenvalues: 
  0.980  0.980  0.997  0.997  0.997
    eigenvectors:
  0.161  0.839  0.000  0.000  0.000
  0.000  0.000  0.218  0.449  0.333
  0.000  0.000  0.120  0.546  0.333
  0.839  0.161  0.000  0.000  0.000
  0.000  0.000  0.662  0.005  0.333
    occupations:
  0.980  0.000  0.000  0.000  0.000
  0.000  0.997  0.000  0.000  0.000
  0.000  0.000  0.997  0.000  0.000
  0.000  0.000  0.000  0.980  0.000
  0.000  0.000  0.000  0.000  0.997
   spin  2
    eigenvalues: 
  0.384  0.384  0.995  0.995  0.995
    eigenvectors:
  0.002  0.998  0.000  0.000  0.000
  0.000  0.000  0.000  0.667  0.333
  0.000  0.000  0.499  0.168  0.333
  0.998  0.002  0.000  0.000  0.000
  0.000  0.000  0.501  0.166  0.333
    occupations:
  0.384  0.001  0.001  0.000  0.001
  0.001  0.995  0.000  0.001  0.000
  0.001  0.000  0.995 -0.001  0.000
  0.000  0.001 -0.001  0.384  0.000
  0.001  0.000  0.000  0.000  0.995
atomic mag. moment =     1.198787
atom    2   Tr[ns(na)] (up, down, total) =   4.95241  3.75363  8.70603
   spin  1
    eigenvalues: 
  0.980  0.980  0.997  0.997  0.997
    eigenvectors:
  0.250  0.750  0.000  0.000  0.000
  0.000  0.000  0.500  0.167  0.333
  0.000  0.000  0.000  0.667  0.333
  0.750  0.250  0.000  0.000  0.000
  0.000  0.000  0.500  0.167  0.333
    occupations:
  0.980  0.000  0.000  0.000  0.000
  0.000  0.997  0.000  0.000  0.000
  0.000  0.000  0.997  0.000  0.000
  0.000  0.000  0.000  0.980  0.000
  0.000  0.000  0.000  0.000  0.997
   spin  2
    eigenvalues: 
  0.384  0.384  0.995  0.995  0.995
    eigenvectors:
  0.750  0.250  0.000  0.000  0.000
  0.000  0.000  0.500  0.167  0.333
  0.000  0.000  0.000  0.666  0.334
  0.250  0.750  0.000  0.000  0.000
  0.000  0.000  0.500  0.167  0.333
    occupations:
  0.384  0.001  0.001  0.000  0.001
  0.001  0.995  0.000  0.001  0.000
  0.001  0.000  0.995 -0.001  0.000
  0.000  0.001 -0.001  0.384  0.000
  0.001  0.000  0.000  0.000  0.995
atomic mag. moment =     1.198778
atom    3   Tr[ns(na)] (up, down, total) =   4.95241  3.75363  8.70603
   spin  1
    eigenvalues: 
  0.980  0.980  0.997  0.997  0.997
    eigenvectors:
  0.250  0.750  0.000  0.000  0.000
  0.000  0.000  0.000  0.667  0.333
  0.000  0.000  0.500  0.167  0.333
  0.750  0.250  0.000  0.000  0.000
  0.000  0.000  0.500  0.167  0.333
    occupations:
  0.980  0.000  0.000  0.000  0.000
  0.000  0.997  0.000  0.000  0.000
  0.000  0.000  0.997  0.000  0.000
  0.000  0.000  0.000  0.980  0.000
  0.000  0.000  0.000  0.000  0.997
   spin  2
    eigenvalues: 
  0.384  0.384  0.995  0.995  0.995
    eigenvectors:
  0.750  0.250  0.000  0.000  0.000
  0.000  0.000  0.000  0.666  0.334
  0.000  0.000  0.500  0.167  0.333
  0.250  0.750  0.000  0.000  0.000
  0.000  0.000  0.500  0.167  0.333
    occupations:
  0.384  0.001  0.001  0.000  0.001
  0.001  0.995  0.000  0.001  0.000
  0.001  0.000  0.995 -0.001  0.000
  0.000  0.001 -0.001  0.384  0.000
  0.001  0.000  0.000  0.000  0.995
atomic mag. moment =     1.198778
atom    4   Tr[ns(na)] (up, down, total) =   4.95241  3.75363  8.70603
   spin  1
    eigenvalues: 
  0.980  0.980  0.997  0.997  0.997
    eigenvectors:
  1.000  0.000  0.000  0.000  0.000
  0.000  0.000  0.500  0.167  0.333
  0.000  0.000  0.500  0.167  0.333
  0.000  1.000  0.000  0.000  0.000
  0.000  0.000  0.000  0.667  0.333
    occupations:
  0.980  0.000  0.000  0.000  0.000
  0.000  0.997  0.000  0.000  0.000
  0.000  0.000  0.997  0.000  0.000
  0.000  0.000  0.000  0.980  0.000
  0.000  0.000  0.000  0.000  0.997
   spin  2
    eigenvalues: 
  0.384  0.384  0.995  0.995  0.995
    eigenvectors:
  0.000  1.000  0.000  0.000  0.000
  0.000  0.000  0.500  0.167  0.333
  0.000  0.000  0.500  0.167  0.333
  1.000  0.000  0.000  0.000  0.000
  0.000  0.000  0.000  0.666  0.334
    occupations:
  0.384  0.001  0.001  0.000  0.001
  0.001  0.995  0.000  0.001  0.000
  0.001  0.000  0.995 -0.001  0.000
  0.000  0.001 -0.001  0.384  0.000
  0.001  0.000  0.000  0.000  0.995
atomic mag. moment =     1.198778
atom    5   Tr[ns(na)] (up, down, total) =   3.75362  4.95240  8.70603
   spin  1
    eigenvalues: 
  0.384  0.384  0.995  0.995  0.995
    eigenvectors:
  0.000  1.000  0.000  0.000  0.000
  0.000  0.000  0.167  0.500  0.333
  0.000  0.000  0.167  0.500  0.333
  1.000  0.000  0.000  0.000  0.000
  0.000  0.000  0.667  0.000  0.333
    occupations:
  0.384  0.001  0.001  0.000  0.001
  0.001  0.995  0.000  0.001  0.000
  0.001  0.000  0.995 -0.001  0.000
  0.000  0.001 -0.001  0.384  0.000
  0.001  0.000  0.000  0.000  0.995
   spin  2
    eigenvalues: 
  0.980  0.980  0.997  0.997  0.997
    eigenvectors:
  1.000  0.000  0.000  0.000  0.000
  0.000  0.000  0.500  0.167  0.333
  0.000  0.000  0.500  0.167  0.333
  0.000  1.000  0.000  0.000  0.000
  0.000  0.000  0.000  0.666  0.334
    occupations:
  0.980  0.000  0.000  0.000  0.000
  0.000  0.997  0.000  0.000  0.000
  0.000  0.000  0.997  0.000  0.000
  0.000  0.000  0.000  0.980  0.000
  0.000  0.000  0.000  0.000  0.997
atomic mag. moment =    -1.198782
atom    6   Tr[ns(na)] (up, down, total) =   3.75362  4.95240  8.70603
   spin  1
    eigenvalues: 
  0.384  0.384  0.995  0.995  0.995
    eigenvectors:
  0.750  0.250  0.000  0.000  0.000
  0.000  0.000  0.667  0.000  0.333
  0.000  0.000  0.167  0.500  0.333
  0.250  0.750  0.000  0.000  0.000
  0.000  0.000  0.167  0.500  0.333
    occupations:
  0.384  0.001  0.001  0.000  0.001
  0.001  0.995  0.000  0.001  0.000
  0.001  0.000  0.995 -0.001  0.000
  0.000  0.001 -0.001  0.384  0.000
  0.001  0.000  0.000  0.000  0.995
   spin  2
    eigenvalues: 
  0.980  0.980  0.997  0.997  0.997
    eigenvectors:
  0.250  0.750  0.000  0.000  0.000
  0.000  0.000  0.000  0.666  0.334
  0.000  0.000  0.500  0.167  0.333
  0.750  0.250  0.000  0.000  0.000
  0.000  0.000  0.500  0.167  0.333
    occupations:
  0.980  0.000  0.000  0.000  0.000
  0.000  0.997  0.000  0.000  0.000
  0.000  0.000  0.997  0.000  0.000
  0.000  0.000  0.000  0.980  0.000
  0.000  0.000  0.000  0.000  0.997
atomic mag. moment =    -1.198782
atom    7   Tr[ns(na)] (up, down, total) =   3.75362  4.95240  8.70603
   spin  1
    eigenvalues: 
  0.384  0.384  0.995  0.995  0.995
    eigenvectors:
  0.750  0.250  0.000  0.000  0.000
  0.000  0.000  0.167  0.500  0.333
  0.000  0.000  0.667  0.000  0.333
  0.250  0.750  0.000  0.000  0.000
  0.000  0.000  0.167  0.500  0.333
    occupations:
  0.384  0.001  0.001  0.000  0.001
  0.001  0.995  0.000  0.001  0.000
  0.001  0.000  0.995 -0.001  0.000
  0.000  0.001 -0.001  0.384  0.000
  0.001  0.000  0.000  0.000  0.995
   spin  2
    eigenvalues: 
  0.980  0.980  0.997  0.997  0.997
    eigenvectors:
  0.250  0.750  0.000  0.000  0.000
  0.000  0.000  0.500  0.167  0.333
  0.000  0.000  0.000  0.666  0.334
  0.750  0.250  0.000  0.000  0.000
  0.000  0.000  0.500  0.167  0.333
    occupations:
  0.980  0.000  0.000  0.000  0.000
  0.000  0.997  0.000  0.000  0.000
  0.000  0.000  0.997  0.000  0.000
  0.000  0.000  0.000  0.980  0.000
  0.000  0.000  0.000  0.000  0.997
atomic mag. moment =    -1.198782
atom    8   Tr[ns(na)] (up, down, total) =   3.75362  4.95241  8.70603
   spin  1
    eigenvalues: 
  0.384  0.384  0.995  0.995  0.995
    eigenvectors:
  0.011  0.989  0.000  0.000  0.000
  0.000  0.000  0.110  0.557  0.333
  0.000  0.000  0.231  0.436  0.333
  0.989  0.011  0.000  0.000  0.000
  0.000  0.000  0.659  0.007  0.333
    occupations:
  0.384  0.001  0.001  0.000  0.001
  0.001  0.995  0.000  0.001  0.000
  0.001  0.000  0.995 -0.001  0.000
  0.000  0.001 -0.001  0.384  0.000
  0.001  0.000  0.000  0.000  0.995
   spin  2
    eigenvalues: 
  0.980  0.980  0.997  0.997  0.997
    eigenvectors:
  0.319  0.681  0.000  0.000  0.000
  0.000  0.000  0.031  0.635  0.333
  0.000  0.000  0.362  0.305  0.333
  0.681  0.319  0.000  0.000  0.000
  0.000  0.000  0.607  0.060  0.333
    occupations:
  0.980  0.000  0.000  0.000  0.000
  0.000  0.997  0.000  0.000  0.000
  0.000  0.000  0.997  0.000  0.000
  0.000  0.000  0.000  0.980  0.000
  0.000  0.000  0.000  0.000  0.997
atomic mag. moment =    -1.198781
atom    9   Tr[ns(na)] (up, down, total) =   2.81114  2.81114  5.62228
   spin  1
    eigenvalues: 
  0.937  0.937  0.938
    eigenvectors:
  0.667  0.000  0.333
  0.167  0.500  0.333
  0.167  0.500  0.333
    occupations:
  0.937  0.000  0.000
  0.000  0.937  0.000
  0.000  0.000  0.937
   spin  2
    eigenvalues: 
  0.937  0.937  0.938
    eigenvectors:
  0.000  0.666  0.334
  0.500  0.167  0.333
  0.500  0.167  0.333
    occupations:
  0.937  0.000  0.000
  0.000  0.937  0.000
  0.000  0.000  0.937
atomic mag. moment =     0.000000
atom   10   Tr[ns(na)] (up, down, total) =   2.81114  2.81114  5.62228
   spin  1
    eigenvalues: 
  0.937  0.937  0.938
    eigenvectors:
  0.520  0.147  0.333
  0.479  0.187  0.333
  0.001  0.666  0.333
    occupations:
  0.937  0.000  0.000
  0.000  0.937  0.000
  0.000  0.000  0.937
   spin  2
    eigenvalues: 
  0.937  0.937  0.938
    eigenvectors:
  0.345  0.322  0.333
  0.616  0.051  0.333
  0.039  0.628  0.333
    occupations:
  0.937  0.000  0.000
  0.000  0.937  0.000
  0.000  0.000  0.937
atomic mag. moment =     0.000001
atom   11   Tr[ns(na)] (up, down, total) =   2.81114  2.81114  5.62228
   spin  1
    eigenvalues: 
  0.937  0.937  0.938
    eigenvectors:
  0.167  0.500  0.333
  0.167  0.500  0.333
  0.667  0.000  0.333
    occupations:
  0.937  0.000  0.000
  0.000  0.937  0.000
  0.000  0.000  0.937
   spin  2
    eigenvalues: 
  0.937  0.937  0.938
    eigenvectors:
  0.500  0.167  0.333
  0.500  0.167  0.333
  0.000  0.666  0.334
    occupations:
  0.937  0.000  0.000
  0.000  0.937  0.000
  0.000  0.000  0.937
atomic mag. moment =     0.000000
atom   12   Tr[ns(na)] (up, down, total) =   2.81114  2.81114  5.62228
   spin  1
    eigenvalues: 
  0.937  0.937  0.938
    eigenvectors:
  0.167  0.500  0.333
  0.667  0.000  0.333
  0.167  0.500  0.333
    occupations:
  0.937  0.000  0.000
  0.000  0.937  0.000
  0.000  0.000  0.937
   spin  2
    eigenvalues: 
  0.937  0.937  0.938
    eigenvectors:
  0.500  0.167  0.333
  0.000  0.666  0.334
  0.500  0.167  0.333
    occupations:
  0.937  0.000  0.000
  0.000  0.937  0.000
  0.000  0.000  0.937
atomic mag. moment =     0.000000
atom   13   Tr[ns(na)] (up, down, total) =   2.81114  2.81114  5.62228
   spin  1
    eigenvalues: 
  0.937  0.937  0.938
    eigenvectors:
  0.167  0.500  0.333
  0.167  0.500  0.333
  0.667  0.000  0.333
    occupations:
  0.937  0.000  0.000
  0.000  0.937  0.000
  0.000  0.000  0.937
   spin  2
    eigenvalues: 
  0.937  0.937  0.938
    eigenvectors:
  0.500  0.167  0.333
  0.500  0.167  0.333
  0.000  0.666  0.334
    occupations:
  0.937  0.000  0.000
  0.000  0.937  0.000
  0.000  0.000  0.937
atomic mag. moment =     0.000000
atom   14   Tr[ns(na)] (up, down, total) =   2.81114  2.81114  5.62228
   spin  1
    eigenvalues: 
  0.937  0.937  0.938
    eigenvectors:
  0.167  0.500  0.333
  0.667  0.000  0.333
  0.167  0.500  0.333
    occupations:
  0.937  0.000  0.000
  0.000  0.937  0.000
  0.000  0.000  0.937
   spin  2
    eigenvalues: 
  0.937  0.937  0.938
    eigenvectors:
  0.500  0.167  0.333
  0.000  0.666  0.334
  0.500  0.167  0.333
    occupations:
  0.937  0.000  0.000
  0.000  0.937  0.000
  0.000  0.000  0.937
atomic mag. moment =     0.000000
atom   15   Tr[ns(na)] (up, down, total) =   2.81114  2.81114  5.62228
   spin  1
    eigenvalues: 
  0.937  0.937  0.938
    eigenvectors:
  0.421  0.246  0.333
  0.568  0.099  0.333
  0.011  0.656  0.333
    occupations:
  0.937  0.000  0.000
  0.000  0.937  0.000
  0.000  0.000  0.937
   spin  2
    eigenvalues: 
  0.937  0.937  0.938
    eigenvectors:
  0.345  0.322  0.333
  0.616  0.051  0.333
  0.039  0.628  0.333
    occupations:
  0.937  0.000  0.000
  0.000  0.937  0.000
  0.000  0.000  0.937
atomic mag. moment =     0.000001
atom   16   Tr[ns(na)] (up, down, total) =   2.81114  2.81114  5.62228
   spin  1
    eigenvalues: 
  0.937  0.937  0.938
    eigenvectors:
  0.667  0.000  0.333
  0.167  0.500  0.333
  0.167  0.500  0.333
    occupations:
  0.937  0.000  0.000
  0.000  0.937  0.000
  0.000  0.000  0.937
   spin  2
    eigenvalues: 
  0.937  0.937  0.938
    eigenvectors:
  0.000  0.666  0.334
  0.500  0.167  0.333
  0.500  0.167  0.333
    occupations:
  0.937  0.000  0.000
  0.000  0.937  0.000
  0.000  0.000  0.937
atomic mag. moment =     0.000000
N of occupied +U levels = 114.6264869
 --- exit write_ns ---
 Atomic wfc used for LDA+U Projector are NOT orthogonalized
     Starting wfc from file

     total cpu time spent up to now is       16.2 secs

     per-process dynamical memory:    86.3 Mb

     Self-consistent Calculation

     iteration #  1     ecut=    30.00 Ry     beta=0.30
     Davidson diagonalization with overlap
     ethr =  9.70E-11,  avg # of iterations = 11.9
 --- enter write_ns ---
 LDA+U parameters:
U( 1)     =  0.00000000
alpha( 1) = -0.15000000
U( 2)     =  0.00000000
alpha( 2) =  0.00000000
U( 3)     =  0.00000000
alpha( 3) =  0.00000000
U( 4)     =  0.00000000
alpha( 4) =  0.00000000
atom    1   Tr[ns(na)] (up, down, total) =   4.95525  3.78597  8.74122
   spin  1
    eigenvalues: 
  0.982  0.982  0.997  0.997  0.997
    eigenvectors:
  0.163  0.837  0.000  0.000  0.000
  0.000  0.000  0.125  0.542  0.333
  0.000  0.000  0.212  0.455  0.333
  0.837  0.163  0.000  0.000  0.000
  0.000  0.000  0.663  0.004  0.333
    occupations:
  0.982  0.000  0.000  0.000  0.000
  0.000  0.997  0.000  0.000  0.000
  0.000  0.000  0.997  0.000  0.000
  0.000  0.000  0.000  0.982  0.000
  0.000  0.000  0.000  0.000  0.997
   spin  2
    eigenvalues: 
  0.399  0.399  0.996  0.996  0.996
    eigenvectors:
  0.033  0.967  0.000  0.000  0.000
  0.000  0.000  0.097  0.569  0.333
  0.000  0.000  0.248  0.419  0.333
  0.967  0.033  0.000  0.000  0.000
  0.000  0.000  0.655  0.011  0.333
    occupations:
  0.399  0.001  0.001  0.000  0.001
  0.001  0.996  0.000  0.001  0.000
  0.001  0.000  0.996 -0.001  0.000
  0.000  0.001 -0.001  0.399  0.000
  0.001  0.000  0.000  0.000  0.996
atomic mag. moment =     1.169286
atom    2   Tr[ns(na)] (up, down, total) =   4.95238  3.75269  8.70507
   spin  1
    eigenvalues: 
  0.980  0.980  0.997  0.997  0.997
    eigenvectors:
  0.750  0.250  0.000  0.000  0.000
  0.000  0.000  0.500  0.169  0.331
  0.000  0.000  0.000  0.662  0.338
  0.250  0.750  0.000  0.000  0.000
  0.000  0.000  0.500  0.169  0.331
    occupations:
  0.980  0.000  0.000  0.000  0.000
  0.000  0.997  0.000  0.000  0.000
  0.000  0.000  0.997  0.000  0.000
  0.000  0.000  0.000  0.980  0.000
  0.000  0.000  0.000  0.000  0.997
   spin  2
    eigenvalues: 
  0.384  0.384  0.995  0.995  0.995
    eigenvectors:
  0.250  0.750  0.000  0.000  0.000
  0.000  0.000  0.020  0.500  0.480
  0.000  0.000  0.960  0.000  0.040
  0.750  0.250  0.000  0.000  0.000
  0.000  0.000  0.020  0.500  0.480
    occupations:
  0.384  0.001  0.000  0.000  0.001
  0.001  0.995  0.000  0.001  0.000
  0.000  0.000  0.995 -0.001  0.000
  0.000  0.001 -0.001  0.384  0.000
  0.001  0.000  0.000  0.000  0.995
atomic mag. moment =     1.199693
atom    3   Tr[ns(na)] (up, down, total) =   4.95238  3.75269  8.70507
   spin  1
    eigenvalues: 
  0.980  0.980  0.997  0.997  0.997
    eigenvectors:
  0.750  0.250  0.000  0.000  0.000
  0.000  0.000  0.000  0.662  0.338
  0.000  0.000  0.500  0.169  0.331
  0.250  0.750  0.000  0.000  0.000
  0.000  0.000  0.500  0.169  0.331
    occupations:
  0.980  0.000  0.000  0.000  0.000
  0.000  0.997  0.000  0.000  0.000
  0.000  0.000  0.997  0.000  0.000
  0.000  0.000  0.000  0.980  0.000
  0.000  0.000  0.000  0.000  0.997
   spin  2
    eigenvalues: 
  0.384  0.384  0.995  0.995  0.995
    eigenvectors:
  0.250  0.750  0.000  0.000  0.000
  0.000  0.000  0.960  0.000  0.040
  0.000  0.000  0.020  0.500  0.480
  0.750  0.250  0.000  0.000  0.000
  0.000  0.000  0.020  0.500  0.480
    occupations:
  0.384  0.000  0.001  0.000  0.001
  0.000  0.995  0.000  0.001  0.000
  0.001  0.000  0.995 -0.001  0.000
  0.000  0.001 -0.001  0.384  0.000
  0.001  0.000  0.000  0.000  0.995
atomic mag. moment =     1.199693
atom    4   Tr[ns(na)] (up, down, total) =   4.95238  3.75269  8.70507
   spin  1
    eigenvalues: 
  0.980  0.980  0.997  0.997  0.997
    eigenvectors:
  0.000  1.000  0.000  0.000  0.000
  0.000  0.000  0.500  0.169  0.331
  0.000  0.000  0.500  0.169  0.331
  1.000  0.000  0.000  0.000  0.000
  0.000  0.000  0.000  0.662  0.338
    occupations:
  0.980  0.000  0.000  0.000  0.000
  0.000  0.997  0.000  0.000  0.000
  0.000  0.000  0.997  0.000  0.000
  0.000  0.000  0.000  0.980  0.000
  0.000  0.000  0.000  0.000  0.997
   spin  2
    eigenvalues: 
  0.384  0.384  0.995  0.995  0.995
    eigenvectors:
  1.000  0.000  0.000  0.000  0.000
  0.000  0.000  0.020  0.500  0.480
  0.000  0.000  0.020  0.500  0.480
  0.000  1.000  0.000  0.000  0.000
  0.000  0.000  0.960  0.000  0.040
    occupations:
  0.384  0.001  0.001  0.000  0.001
  0.001  0.995  0.000  0.001  0.000
  0.001  0.000  0.995 -0.001  0.000
  0.000  0.001 -0.001  0.384  0.000
  0.001  0.000  0.000  0.000  0.995
atomic mag. moment =     1.199693
atom    5   Tr[ns(na)] (up, down, total) =   3.75351  4.95228  8.70579
   spin  1
    eigenvalues: 
  0.384  0.384  0.995  0.995  0.995
    eigenvectors:
  1.000  0.000  0.000  0.000  0.000
  0.000  0.000  0.500  0.166  0.334
  0.000  0.000  0.500  0.166  0.334
  0.000  1.000  0.000  0.000  0.000
  0.000  0.000  0.000  0.668  0.332
    occupations:
  0.384  0.001  0.001  0.000  0.001
  0.001  0.995  0.000  0.001  0.000
  0.001  0.000  0.995 -0.001  0.000
  0.000  0.001 -0.001  0.384  0.000
  0.001  0.000  0.000  0.000  0.995
   spin  2
    eigenvalues: 
  0.980  0.980  0.997  0.997  0.997
    eigenvectors:
  1.000  0.000  0.000  0.000  0.000
  0.000  0.000  0.006  0.500  0.494
  0.000  0.000  0.006  0.500  0.494
  0.000  1.000  0.000  0.000  0.000
  0.000  0.000  0.988  0.000  0.012
    occupations:
  0.980  0.000  0.000  0.000  0.000
  0.000  0.997  0.000  0.000  0.000
  0.000  0.000  0.997  0.000  0.000
  0.000  0.000  0.000  0.980  0.000
  0.000  0.000  0.000  0.000  0.997
atomic mag. moment =    -1.198765
atom    6   Tr[ns(na)] (up, down, total) =   3.75351  4.95228  8.70579
   spin  1
    eigenvalues: 
  0.384  0.384  0.995  0.995  0.995
    eigenvectors:
  0.250  0.750  0.000  0.000  0.000
  0.000  0.000  0.000  0.668  0.332
  0.000  0.000  0.500  0.166  0.334
  0.750  0.250  0.000  0.000  0.000
  0.000  0.000  0.500  0.166  0.334
    occupations:
  0.384  0.001  0.001  0.000  0.001
  0.001  0.995  0.000  0.001  0.000
  0.001  0.000  0.995 -0.001  0.000
  0.000  0.001 -0.001  0.384  0.000
  0.001  0.000  0.000  0.000  0.995
   spin  2
    eigenvalues: 
  0.980  0.980  0.997  0.997  0.997
    eigenvectors:
  0.250  0.750  0.000  0.000  0.000
  0.000  0.000  0.988  0.000  0.012
  0.000  0.000  0.006  0.500  0.494
  0.750  0.250  0.000  0.000  0.000
  0.000  0.000  0.006  0.500  0.494
    occupations:
  0.980  0.000  0.000  0.000  0.000
  0.000  0.997  0.000  0.000  0.000
  0.000  0.000  0.997  0.000  0.000
  0.000  0.000  0.000  0.980  0.000
  0.000  0.000  0.000  0.000  0.997
atomic mag. moment =    -1.198765
atom    7   Tr[ns(na)] (up, down, total) =   3.75351  4.95228  8.70579
   spin  1
    eigenvalues: 
  0.384  0.384  0.995  0.995  0.995
    eigenvectors:
  0.250  0.750  0.000  0.000  0.000
  0.000  0.000  0.500  0.166  0.334
  0.000  0.000  0.000  0.668  0.332
  0.750  0.250  0.000  0.000  0.000
  0.000  0.000  0.500  0.166  0.334
    occupations:
  0.384  0.001  0.001  0.000  0.001
  0.001  0.995  0.000  0.001  0.000
  0.001  0.000  0.995 -0.001  0.000
  0.000  0.001 -0.001  0.384  0.000
  0.001  0.000  0.000  0.000  0.995
   spin  2
    eigenvalues: 
  0.980  0.980  0.997  0.997  0.997
    eigenvectors:
  0.250  0.750  0.000  0.000  0.000
  0.000  0.000  0.006  0.500  0.494
  0.000  0.000  0.988  0.000  0.012
  0.750  0.250  0.000  0.000  0.000
  0.000  0.000  0.006  0.500  0.494
    occupations:
  0.980  0.000  0.000  0.000  0.000
  0.000  0.997  0.000  0.000  0.000
  0.000  0.000  0.997  0.000  0.000
  0.000  0.000  0.000  0.980  0.000
  0.000  0.000  0.000  0.000  0.997
atomic mag. moment =    -1.198765
atom    8   Tr[ns(na)] (up, down, total) =   3.75033  4.94883  8.69915
   spin  1
    eigenvalues: 
  0.382  0.382  0.995  0.995  0.995
    eigenvectors:
  0.849  0.151  0.000  0.000  0.000
  0.000  0.000  0.190  0.477  0.333
  0.000  0.000  0.144  0.522  0.333
  0.151  0.849  0.000  0.000  0.000
  0.000  0.000  0.666  0.001  0.333
    occupations:
  0.382  0.001  0.001  0.000  0.001
  0.001  0.995  0.000  0.001  0.000
  0.001  0.000  0.995 -0.001  0.000
  0.000  0.001 -0.001  0.382  0.000
  0.001  0.000  0.000  0.000  0.995
   spin  2
    eigenvalues: 
  0.979  0.979  0.997  0.997  0.997
    eigenvectors:
  0.763  0.237  0.000  0.000  0.000
  0.000  0.000  0.083  0.584  0.333
  0.000  0.000  0.268  0.399  0.333
  0.237  0.763  0.000  0.000  0.000
  0.000  0.000  0.649  0.018  0.333
    occupations:
  0.979  0.000  0.000  0.000  0.000
  0.000  0.997  0.000  0.000  0.000
  0.000  0.000  0.997  0.000  0.000
  0.000  0.000  0.000  0.979  0.000
  0.000  0.000  0.000  0.000  0.997
atomic mag. moment =    -1.198501
atom    9   Tr[ns(na)] (up, down, total) =   2.81115  2.80876  5.61991
   spin  1
    eigenvalues: 
  0.937  0.937  0.938
    eigenvectors:
  0.000  0.660  0.340
  0.500  0.170  0.330
  0.500  0.170  0.330
    occupations:
  0.937  0.000  0.000
  0.000  0.937  0.000
  0.000  0.000  0.937
   spin  2
    eigenvalues: 
  0.935  0.937  0.938
    eigenvectors:
  0.958  0.000  0.042
  0.021  0.500  0.479
  0.021  0.500  0.479
    occupations:
  0.935  0.000  0.000
  0.000  0.937  0.000
  0.000  0.000  0.937
atomic mag. moment =     0.002393
atom   10   Tr[ns(na)] (up, down, total) =   2.81114  2.81111  5.62225
   spin  1
    eigenvalues: 
  0.937  0.937  0.938
    eigenvectors:
  0.441  0.225  0.333
  0.552  0.114  0.333
  0.006  0.660  0.333
    occupations:
  0.937  0.000  0.000
  0.000  0.937  0.000
  0.000  0.000  0.937
   spin  2
    eigenvalues: 
  0.937  0.937  0.938
    eigenvectors:
  0.457  0.210  0.333
  0.540  0.127  0.333
  0.003  0.663  0.333
    occupations:
  0.937  0.000  0.000
  0.000  0.937  0.000
  0.000  0.000  0.937
atomic mag. moment =     0.000027
atom   11   Tr[ns(na)] (up, down, total) =   2.81115  2.80876  5.61991
   spin  1
    eigenvalues: 
  0.937  0.937  0.938
    eigenvectors:
  0.500  0.170  0.330
  0.500  0.170  0.330
  0.000  0.660  0.340
    occupations:
  0.937  0.000  0.000
  0.000  0.937  0.000
  0.000  0.000  0.937
   spin  2
    eigenvalues: 
  0.935  0.937  0.938
    eigenvectors:
  0.021  0.500  0.479
  0.021  0.500  0.479
  0.958  0.000  0.042
    occupations:
  0.937  0.000  0.000
  0.000  0.937  0.000
  0.000  0.000  0.935
atomic mag. moment =     0.002393
atom   12   Tr[ns(na)] (up, down, total) =   2.81115  2.80876  5.61991
   spin  1
    eigenvalues: 
  0.937  0.937  0.938
    eigenvectors:
  0.500  0.170  0.330
  0.000  0.660  0.340
  0.500  0.170  0.330
    occupations:
  0.937  0.000  0.000
  0.000  0.937  0.000
  0.000  0.000  0.937
   spin  2
    eigenvalues: 
  0.935  0.937  0.938
    eigenvectors:
  0.021  0.500  0.479
  0.958  0.000  0.042
  0.021  0.500  0.479
    occupations:
  0.937  0.000  0.000
  0.000  0.935  0.000
  0.000  0.000  0.937
atomic mag. moment =     0.002393
atom   13   Tr[ns(na)] (up, down, total) =   2.81115  2.80876  5.61991
   spin  1
    eigenvalues: 
  0.937  0.937  0.938
    eigenvectors:
  0.500  0.170  0.330
  0.500  0.170  0.330
  0.000  0.660  0.340
    occupations:
  0.937  0.000  0.000
  0.000  0.937  0.000
  0.000  0.000  0.937
   spin  2
    eigenvalues: 
  0.935  0.937  0.938
    eigenvectors:
  0.021  0.500  0.479
  0.021  0.500  0.479
  0.958  0.000  0.042
    occupations:
  0.937  0.000  0.000
  0.000  0.937  0.000
  0.000  0.000  0.935
atomic mag. moment =     0.002393
atom   14   Tr[ns(na)] (up, down, total) =   2.81115  2.80876  5.61991
   spin  1
    eigenvalues: 
  0.937  0.937  0.938
    eigenvectors:
  0.500  0.170  0.330
  0.000  0.660  0.340
  0.500  0.170  0.330
    occupations:
  0.937  0.000  0.000
  0.000  0.937  0.000
  0.000  0.000  0.937
   spin  2
    eigenvalues: 
  0.935  0.937  0.938
    eigenvectors:
  0.021  0.500  0.479
  0.958  0.000  0.042
  0.021  0.500  0.479
    occupations:
  0.937  0.000  0.000
  0.000  0.935  0.000
  0.000  0.000  0.937
atomic mag. moment =     0.002393
atom   15   Tr[ns(na)] (up, down, total) =   2.81114  2.81111  5.62225
   spin  1
    eigenvalues: 
  0.937  0.937  0.938
    eigenvectors:
  0.465  0.202  0.333
  0.533  0.134  0.333
  0.002  0.664  0.333
    occupations:
  0.937  0.000  0.000
  0.000  0.937  0.000
  0.000  0.000  0.937
   spin  2
    eigenvalues: 
  0.937  0.937  0.938
    eigenvectors:
  0.458  0.209  0.333
  0.539  0.128  0.333
  0.003  0.663  0.333
    occupations:
  0.937  0.000  0.000
  0.000  0.937  0.000
  0.000  0.000  0.937
atomic mag. moment =     0.000027
atom   16   Tr[ns(na)] (up, down, total) =   2.81115  2.80876  5.61991
   spin  1
    eigenvalues: 
  0.937  0.937  0.938
    eigenvectors:
  0.000  0.660  0.340
  0.500  0.170  0.330
  0.500  0.170  0.330
    occupations:
  0.937  0.000  0.000
  0.000  0.937  0.000
  0.000  0.000  0.937
   spin  2
    eigenvalues: 
  0.935  0.937  0.938
    eigenvectors:
  0.958  0.000  0.042
  0.021  0.500  0.479
  0.021  0.500  0.479
    occupations:
  0.935  0.000  0.000
  0.000  0.937  0.000
  0.000  0.000  0.937
atomic mag. moment =     0.002393
N of occupied +U levels = 114.6369326
 --- exit write_ns ---

     total cpu time spent up to now is       74.6 secs

     total energy              =    -942.11189694 Ry
     Harris-Foulkes estimate   =    -942.11227669 Ry
     estimated scf accuracy    <       0.00086870 Ry

     total magnetization       =     0.00 Bohr mag/cell
     absolute magnetization    =    12.27 Bohr mag/cell

     iteration #  2     ecut=    30.00 Ry     beta=0.30
     Davidson diagonalization with overlap
     ethr =  6.79E-07,  avg # of iterations =  2.1

     total cpu time spent up to now is      112.9 secs

     total energy              =    -942.11202316 Ry
     Harris-Foulkes estimate   =    -942.11232093 Ry
     estimated scf accuracy    <       0.00124579 Ry

     total magnetization       =     0.00 Bohr mag/cell
     absolute magnetization    =    12.28 Bohr mag/cell

     iteration #  3     ecut=    30.00 Ry     beta=0.30
     Davidson diagonalization with overlap
     ethr =  6.79E-07,  avg # of iterations =  2.0

     total cpu time spent up to now is      150.0 secs

     total energy              =    -942.11217099 Ry
     Harris-Foulkes estimate   =    -942.11217289 Ry
     estimated scf accuracy    <       0.00001604 Ry

     total magnetization       =     0.00 Bohr mag/cell
     absolute magnetization    =    12.27 Bohr mag/cell

     iteration #  4     ecut=    30.00 Ry     beta=0.30
     Davidson diagonalization with overlap
     ethr =  1.25E-08,  avg # of iterations =  2.0

     total cpu time spent up to now is      187.9 secs

     total energy              =    -942.11217419 Ry
     Harris-Foulkes estimate   =    -942.11217312 Ry
     estimated scf accuracy    <       0.00000430 Ry

     total magnetization       =     0.00 Bohr mag/cell
     absolute magnetization    =    12.27 Bohr mag/cell

     iteration #  5     ecut=    30.00 Ry     beta=0.30
     Davidson diagonalization with overlap
     ethr =  3.36E-09,  avg # of iterations =  1.3

     total cpu time spent up to now is      224.6 secs

     total energy              =    -942.11217490 Ry
     Harris-Foulkes estimate   =    -942.11217463 Ry
     estimated scf accuracy    <       0.00000252 Ry

     total magnetization       =     0.00 Bohr mag/cell
     absolute magnetization    =    12.27 Bohr mag/cell

     iteration #  6     ecut=    30.00 Ry     beta=0.30
     Davidson diagonalization with overlap
     ethr =  1.97E-09,  avg # of iterations =  1.5

     total cpu time spent up to now is      261.7 secs

     total energy              =    -942.11217529 Ry
     Harris-Foulkes estimate   =    -942.11217520 Ry
     estimated scf accuracy    <       0.00000020 Ry

     total magnetization       =     0.00 Bohr mag/cell
     absolute magnetization    =    12.27 Bohr mag/cell

     iteration #  7     ecut=    30.00 Ry     beta=0.30
     Davidson diagonalization with overlap
     ethr =  1.60E-10,  avg # of iterations =  1.6

     total cpu time spent up to now is      299.7 secs

     total energy              =    -942.11217534 Ry
     Harris-Foulkes estimate   =    -942.11217532 Ry
     estimated scf accuracy    <       0.00000004 Ry

     total magnetization       =     0.00 Bohr mag/cell
     absolute magnetization    =    12.27 Bohr mag/cell

     iteration #  8     ecut=    30.00 Ry     beta=0.30
     Davidson diagonalization with overlap
     ethr =  2.75E-11,  avg # of iterations =  2.0

     total cpu time spent up to now is      338.3 secs

     End of self-consistent calculation
 --- enter write_ns ---
 LDA+U parameters:
U( 1)     =  0.00000000
alpha( 1) = -0.15000000
U( 2)     =  0.00000000
alpha( 2) =  0.00000000
U( 3)     =  0.00000000
alpha( 3) =  0.00000000
U( 4)     =  0.00000000
alpha( 4) =  0.00000000
atom    1   Tr[ns(na)] (up, down, total) =   4.95231  3.77045  8.72276
   spin  1
    eigenvalues: 
  0.980  0.980  0.997  0.997  0.997
    eigenvectors:
  0.319  0.681  0.000  0.000  0.000
  0.000  0.000  0.117  0.550  0.333
  0.000  0.000  0.222  0.445  0.333
  0.681  0.319  0.000  0.000  0.000
  0.000  0.000  0.661  0.006  0.333
    occupations:
  0.980  0.000  0.000  0.000  0.000
  0.000  0.997  0.000  0.000  0.000
  0.000  0.000  0.997  0.000  0.000
  0.000  0.000  0.000  0.980  0.000
  0.000  0.000  0.000  0.000  0.997
   spin  2
    eigenvalues: 
  0.392  0.392  0.995  0.995  0.996
    eigenvectors:
  0.147  0.853  0.000  0.000  0.000
  0.000  0.000  0.109  0.557  0.333
  0.000  0.000  0.231  0.435  0.333
  0.853  0.147  0.000  0.000  0.000
  0.000  0.000  0.659  0.008  0.333
    occupations:
  0.392  0.001  0.001  0.000  0.001
  0.001  0.995  0.000  0.001  0.000
  0.001  0.000  0.995 -0.001  0.000
  0.000  0.001 -0.001  0.392  0.000
  0.001  0.000  0.000  0.000  0.995
atomic mag. moment =     1.181865
atom    2   Tr[ns(na)] (up, down, total) =   4.95243  3.75336  8.70579
   spin  1
    eigenvalues: 
  0.980  0.980  0.997  0.997  0.997
    eigenvectors:
  0.250  0.750  0.000  0.000  0.000
  0.000  0.000  0.144  0.500  0.356
  0.000  0.000  0.712  0.000  0.288
  0.750  0.250  0.000  0.000  0.000
  0.000  0.000  0.144  0.500  0.356
    occupations:
  0.980  0.000  0.000  0.000  0.000
  0.000  0.997  0.000  0.000  0.000
  0.000  0.000  0.997  0.000  0.000
  0.000  0.000  0.000  0.980  0.000
  0.000  0.000  0.000  0.000  0.997
   spin  2
    eigenvalues: 
  0.384  0.384  0.995  0.995  0.995
    eigenvectors:
  0.250  0.750  0.000  0.000  0.000
  0.000  0.000  0.067  0.500  0.433
  0.000  0.000  0.867  0.000  0.133
  0.750  0.250  0.000  0.000  0.000
  0.000  0.000  0.067  0.500  0.433
    occupations:
  0.384  0.001  0.000  0.000  0.001
  0.001  0.995  0.000  0.001  0.000
  0.000  0.000  0.995 -0.001  0.000
  0.000  0.001 -0.001  0.384  0.000
  0.001  0.000  0.000  0.000  0.995
atomic mag. moment =     1.199069
atom    3   Tr[ns(na)] (up, down, total) =   4.95243  3.75336  8.70579
   spin  1
    eigenvalues: 
  0.980  0.980  0.997  0.997  0.997
    eigenvectors:
  0.250  0.750  0.000  0.000  0.000
  0.000  0.000  0.712  0.000  0.288
  0.000  0.000  0.144  0.500  0.356
  0.750  0.250  0.000  0.000  0.000
  0.000  0.000  0.144  0.500  0.356
    occupations:
  0.980  0.000  0.000  0.000  0.000
  0.000  0.997  0.000  0.000  0.000
  0.000  0.000  0.997  0.000  0.000
  0.000  0.000  0.000  0.980  0.000
  0.000  0.000  0.000  0.000  0.997
   spin  2
    eigenvalues: 
  0.384  0.384  0.995  0.995  0.995
    eigenvectors:
  0.250  0.750  0.000  0.000  0.000
  0.000  0.000  0.867  0.000  0.133
  0.000  0.000  0.067  0.500  0.433
  0.750  0.250  0.000  0.000  0.000
  0.000  0.000  0.067  0.500  0.433
    occupations:
  0.384  0.000  0.001  0.000  0.001
  0.000  0.995  0.000  0.001  0.000
  0.001  0.000  0.995 -0.001  0.000
  0.000  0.001 -0.001  0.384  0.000
  0.001  0.000  0.000  0.000  0.995
atomic mag. moment =     1.199069
atom    4   Tr[ns(na)] (up, down, total) =   4.95243  3.75336  8.70579
   spin  1
    eigenvalues: 
  0.980  0.980  0.997  0.997  0.997
    eigenvectors:
  1.000  0.000  0.000  0.000  0.000
  0.000  0.000  0.144  0.500  0.356
  0.000  0.000  0.144  0.500  0.356
  0.000  1.000  0.000  0.000  0.000
  0.000  0.000  0.712  0.000  0.288
    occupations:
  0.980  0.000  0.000  0.000  0.000
  0.000  0.997  0.000  0.000  0.000
  0.000  0.000  0.997  0.000  0.000
  0.000  0.000  0.000  0.980  0.000
  0.000  0.000  0.000  0.000  0.997
   spin  2
    eigenvalues: 
  0.384  0.384  0.995  0.995  0.995
    eigenvectors:
  1.000  0.000  0.000  0.000  0.000
  0.000  0.000  0.067  0.500  0.433
  0.000  0.000  0.067  0.500  0.433
  0.000  1.000  0.000  0.000  0.000
  0.000  0.000  0.867  0.000  0.133
    occupations:
  0.384  0.001  0.001  0.000  0.001
  0.001  0.995  0.000  0.001  0.000
  0.001  0.000  0.995 -0.001  0.000
  0.000  0.001 -0.001  0.384  0.000
  0.001  0.000  0.000  0.000  0.995
atomic mag. moment =     1.199069
atom    5   Tr[ns(na)] (up, down, total) =   3.75341  4.95239  8.70580
   spin  1
    eigenvalues: 
  0.384  0.384  0.995  0.995  0.995
    eigenvectors:
  0.000  1.000  0.000  0.000  0.000
  0.000  0.000  0.154  0.500  0.346
  0.000  0.000  0.154  0.500  0.346
  1.000  0.000  0.000  0.000  0.000
  0.000  0.000  0.693  0.000  0.307
    occupations:
  0.384  0.001  0.001  0.000  0.001
  0.001  0.995  0.000  0.001  0.000
  0.001  0.000  0.995 -0.001  0.000
  0.000  0.001 -0.001  0.384  0.000
  0.001  0.000  0.000  0.000  0.995
   spin  2
    eigenvalues: 
  0.980  0.980  0.997  0.997  0.997
    eigenvectors:
  1.000  0.000  0.000  0.000  0.000
  0.000  0.000  0.033  0.500  0.467
  0.000  0.000  0.033  0.500  0.467
  0.000  1.000  0.000  0.000  0.000
  0.000  0.000  0.933  0.000  0.067
    occupations:
  0.980  0.000  0.000  0.000  0.000
  0.000  0.997  0.000  0.000  0.000
  0.000  0.000  0.997  0.000  0.000
  0.000  0.000  0.000  0.980  0.000
  0.000  0.000  0.000  0.000  0.997
atomic mag. moment =    -1.198971
atom    6   Tr[ns(na)] (up, down, total) =   3.75341  4.95239  8.70580
   spin  1
    eigenvalues: 
  0.384  0.384  0.995  0.995  0.995
    eigenvectors:
  0.750  0.250  0.000  0.000  0.000
  0.000  0.000  0.693  0.000  0.307
  0.000  0.000  0.154  0.500  0.346
  0.250  0.750  0.000  0.000  0.000
  0.000  0.000  0.154  0.500  0.346
    occupations:
  0.384  0.001  0.001  0.000  0.001
  0.001  0.995  0.000  0.001  0.000
  0.001  0.000  0.995 -0.001  0.000
  0.000  0.001 -0.001  0.384  0.000
  0.001  0.000  0.000  0.000  0.995
   spin  2
    eigenvalues: 
  0.980  0.980  0.997  0.997  0.997
    eigenvectors:
  0.250  0.750  0.000  0.000  0.000
  0.000  0.000  0.933  0.000  0.067
  0.000  0.000  0.033  0.500  0.467
  0.750  0.250  0.000  0.000  0.000
  0.000  0.000  0.033  0.500  0.467
    occupations:
  0.980  0.000  0.000  0.000  0.000
  0.000  0.997  0.000  0.000  0.000
  0.000  0.000  0.997  0.000  0.000
  0.000  0.000  0.000  0.980  0.000
  0.000  0.000  0.000  0.000  0.997
atomic mag. moment =    -1.198971
atom    7   Tr[ns(na)] (up, down, total) =   3.75341  4.95239  8.70580
   spin  1
    eigenvalues: 
  0.384  0.384  0.995  0.995  0.995
    eigenvectors:
  0.750  0.250  0.000  0.000  0.000
  0.000  0.000  0.154  0.500  0.346
  0.000  0.000  0.693  0.000  0.307
  0.250  0.750  0.000  0.000  0.000
  0.000  0.000  0.154  0.500  0.346
    occupations:
  0.384  0.001  0.001  0.000  0.001
  0.001  0.995  0.000  0.001  0.000
  0.001  0.000  0.995 -0.001  0.000
  0.000  0.001 -0.001  0.384  0.000
  0.001  0.000  0.000  0.000  0.995
   spin  2
    eigenvalues: 
  0.980  0.980  0.997  0.997  0.997
    eigenvectors:
  0.250  0.750  0.000  0.000  0.000
  0.000  0.000  0.033  0.500  0.467
  0.000  0.000  0.933  0.000  0.067
  0.750  0.250  0.000  0.000  0.000
  0.000  0.000  0.033  0.500  0.467
    occupations:
  0.980  0.000  0.000  0.000  0.000
  0.000  0.997  0.000  0.000  0.000
  0.000  0.000  0.997  0.000  0.000
  0.000  0.000  0.000  0.980  0.000
  0.000  0.000  0.000  0.000  0.997
atomic mag. moment =    -1.198971
atom    8   Tr[ns(na)] (up, down, total) =   3.75629  4.95082  8.70710
   spin  1
    eigenvalues: 
  0.385  0.385  0.995  0.995  0.995
    eigenvectors:
  0.984  0.016  0.000  0.000  0.000
  0.000  0.000  0.141  0.526  0.333
  0.000  0.000  0.194  0.473  0.333
  0.016  0.984  0.000  0.000  0.000
  0.000  0.000  0.665  0.001  0.333
    occupations:
  0.385  0.001  0.001  0.000  0.001
  0.001  0.995  0.000  0.001  0.000
  0.001  0.000  0.995 -0.001  0.000
  0.000  0.001 -0.001  0.385  0.000
  0.001  0.000  0.000  0.000  0.995
   spin  2
    eigenvalues: 
  0.980  0.980  0.997  0.997  0.997
    eigenvectors:
  0.410  0.590  0.000  0.000  0.000
  0.000  0.000  0.000  0.666  0.333
  0.000  0.000  0.514  0.152  0.333
  0.590  0.410  0.000  0.000  0.000
  0.000  0.000  0.485  0.182  0.333
    occupations:
  0.980  0.000  0.000  0.000  0.000
  0.000  0.997  0.000  0.000  0.000
  0.000  0.000  0.997  0.000  0.000
  0.000  0.000  0.000  0.980  0.000
  0.000  0.000  0.000  0.000  0.997
atomic mag. moment =    -1.194527
atom    9   Tr[ns(na)] (up, down, total) =   2.81123  2.80999  5.62121
   spin  1
    eigenvalues: 
  0.937  0.937  0.938
    eigenvectors:
  0.698  0.000  0.302
  0.151  0.500  0.349
  0.151  0.500  0.349
    occupations:
  0.937  0.000  0.000
  0.000  0.937  0.000
  0.000  0.000  0.937
   spin  2
    eigenvalues: 
  0.936  0.937  0.938
    eigenvectors:
  0.901  0.000  0.099
  0.050  0.500  0.450
  0.050  0.500  0.450
    occupations:
  0.936  0.000  0.000
  0.000  0.937  0.000
  0.000  0.000  0.937
atomic mag. moment =     0.001241
atom   10   Tr[ns(na)] (up, down, total) =   2.81116  2.81114  5.62231
   spin  1
    eigenvalues: 
  0.937  0.937  0.938
    eigenvectors:
  0.388  0.278  0.333
  0.591  0.076  0.333
  0.021  0.646  0.333
    occupations:
  0.937  0.000  0.000
  0.000  0.937  0.000
  0.000  0.000  0.937
   spin  2
    eigenvalues: 
  0.937  0.937  0.938
    eigenvectors:
  0.432  0.234  0.333
  0.559  0.107  0.333
  0.008  0.659  0.333
    occupations:
  0.937  0.000  0.000
  0.000  0.937  0.000
  0.000  0.000  0.937
atomic mag. moment =     0.000020
atom   11   Tr[ns(na)] (up, down, total) =   2.81123  2.80999  5.62121
   spin  1
    eigenvalues: 
  0.937  0.937  0.938
    eigenvectors:
  0.151  0.500  0.349
  0.151  0.500  0.349
  0.698  0.000  0.302
    occupations:
  0.937  0.000  0.000
  0.000  0.937  0.000
  0.000  0.000  0.937
   spin  2
    eigenvalues: 
  0.936  0.937  0.938
    eigenvectors:
  0.050  0.500  0.450
  0.050  0.500  0.450
  0.901  0.000  0.099
    occupations:
  0.937  0.000  0.000
  0.000  0.937  0.000
  0.000  0.000  0.936
atomic mag. moment =     0.001241
atom   12   Tr[ns(na)] (up, down, total) =   2.81123  2.80999  5.62121
   spin  1
    eigenvalues: 
  0.937  0.937  0.938
    eigenvectors:
  0.151  0.500  0.349
  0.698  0.000  0.302
  0.151  0.500  0.349
    occupations:
  0.937  0.000  0.000
  0.000  0.937  0.000
  0.000  0.000  0.937
   spin  2
    eigenvalues: 
  0.936  0.937  0.938
    eigenvectors:
  0.050  0.500  0.450
  0.901  0.000  0.099
  0.050  0.500  0.450
    occupations:
  0.937  0.000  0.000
  0.000  0.936  0.000
  0.000  0.000  0.937
atomic mag. moment =     0.001241
atom   13   Tr[ns(na)] (up, down, total) =   2.81123  2.80999  5.62121
   spin  1
    eigenvalues: 
  0.937  0.937  0.938
    eigenvectors:
  0.151  0.500  0.349
  0.151  0.500  0.349
  0.698  0.000  0.302
    occupations:
  0.937  0.000  0.000
  0.000  0.937  0.000
  0.000  0.000  0.937
   spin  2
    eigenvalues: 
  0.936  0.937  0.938
    eigenvectors:
  0.050  0.500  0.450
  0.050  0.500  0.450
  0.901  0.000  0.099
    occupations:
  0.937  0.000  0.000
  0.000  0.937  0.000
  0.000  0.000  0.936
atomic mag. moment =     0.001241
atom   14   Tr[ns(na)] (up, down, total) =   2.81123  2.80999  5.62121
   spin  1
    eigenvalues: 
  0.937  0.937  0.938
    eigenvectors:
  0.151  0.500  0.349
  0.698  0.000  0.302
  0.151  0.500  0.349
    occupations:
  0.937  0.000  0.000
  0.000  0.937  0.000
  0.000  0.000  0.937
   spin  2
    eigenvalues: 
  0.936  0.937  0.938
    eigenvectors:
  0.050  0.500  0.450
  0.901  0.000  0.099
  0.050  0.500  0.450
    occupations:
  0.937  0.000  0.000
  0.000  0.936  0.000
  0.000  0.000  0.937
atomic mag. moment =     0.001241
atom   15   Tr[ns(na)] (up, down, total) =   2.81116  2.81114  5.62231
   spin  1
    eigenvalues: 
  0.937  0.937  0.938
    eigenvectors:
  0.404  0.263  0.333
  0.580  0.087  0.333
  0.016  0.651  0.333
    occupations:
  0.937  0.000  0.000
  0.000  0.937  0.000
  0.000  0.000  0.937
   spin  2
    eigenvalues: 
  0.937  0.937  0.938
    eigenvectors:
  0.500  0.167  0.333
  0.500  0.167  0.333
  0.000  0.667  0.333
    occupations:
  0.937  0.000  0.000
  0.000  0.937  0.000
  0.000  0.000  0.937
atomic mag. moment =     0.000020
atom   16   Tr[ns(na)] (up, down, total) =   2.81123  2.80999  5.62121
   spin  1
    eigenvalues: 
  0.937  0.937  0.938
    eigenvectors:
  0.698  0.000  0.302
  0.151  0.500  0.349
  0.151  0.500  0.349
    occupations:
  0.937  0.000  0.000
  0.000  0.937  0.000
  0.000  0.000  0.937
   spin  2
    eigenvalues: 
  0.936  0.937  0.938
    eigenvectors:
  0.901  0.000  0.099
  0.050  0.500  0.450
  0.050  0.500  0.450
    occupations:
  0.936  0.000  0.000
  0.000  0.937  0.000
  0.000  0.000  0.937
atomic mag. moment =     0.001241
N of occupied +U levels = 114.6365365
 --- exit write_ns ---

 ------ SPIN UP ------------


          k = 0.0000 0.0000 0.0000 (  2733 PWs)   bands (ev):

    -8.0834  -6.6936  -6.6933  -6.6933  -6.6916  -6.6337  -6.6337  -6.6235
     4.0141   4.0141   4.0175   4.0298   5.3244   5.3244   5.3246   6.5000
     6.5000   6.5194   6.5194   6.5260   6.5506   6.5506   6.5549   7.9472
     7.9480   7.9480   7.9516   7.9516   7.9523   8.8109   8.8124   8.8124
     9.2494   9.2494   9.2564   9.5442   9.5442   9.6795   9.8680   9.8680
     9.9331   9.9331   9.9377  10.2141  10.2213  10.2213  10.4743  10.4743
    10.4801  10.5896  10.5910  10.5910  10.9046  10.9046  11.0318  11.0318
    11.0334  11.1725  11.2566  11.2566  11.2583  11.3763  11.3768  11.3768
    13.5387  13.5387  13.5973  13.5973  13.5981  13.6811  13.6811  13.6827
    13.7587  17.7958  17.7987  17.8000  17.8000

          k =-0.1250 0.1250 0.1250 (  2743 PWs)   bands (ev):

    -7.9079  -6.9320  -6.6890  -6.6885  -6.6859  -6.6458  -6.6450  -6.6369
     4.3333   4.3360   4.3449   4.5938   5.3377   5.3383   5.3403   6.4174
     6.4263   6.4310   6.6155   6.6576   6.6627   6.6817   6.7236   7.1850
     7.1865   7.2266   7.6800   7.6802   7.6926   7.9576   8.3901   8.3989
     9.2626   9.3193   9.3223   9.6624   9.8090   9.9467  10.0305  10.0328
    10.0998  10.2046  10.2118  10.2380  10.3665  10.5132  10.5301  10.5333
    10.5440  10.6272  10.6776  10.6812  10.8902  10.9856  11.1073  11.1084
    11.1113  11.1713  11.2520  11.2521  11.2736  11.3071  11.3350  11.3366
    13.2057  13.2716  13.2720  13.2860  13.3757  13.4134  13.4137  13.4578
    14.7649  17.5925  18.6757  18.6775  18.6779

          k = 0.2500-0.2500-0.2500 (  2764 PWs)   bands (ev):

    -7.4511  -7.4505  -6.6793  -6.6742  -6.6696  -6.6658  -6.6619  -6.6617
     5.0357   5.0462   5.0515   5.0603   5.0652   5.0667   6.0803   6.0865
     6.3031   6.3178   6.3681   6.3831   6.4481   6.4580   6.8337   6.8487
     6.9979   7.0072   7.3026   7.3061   7.4734   7.4781   7.6260   7.6292
     9.6057   9.6270   9.7933   9.8114   9.8666   9.8813  10.0040  10.0165
    10.1406  10.1531  10.2060  10.2157  10.5239  10.5268  10.6357  10.6372
    10.6520  10.6533  10.8625  10.8636  10.9568  10.9571  11.2369  11.2381
    11.2454  11.2480  11.2902  11.2919  11.3218  11.3241  11.4255  11.4276
    13.0282  13.0324  13.0349  13.0387  13.0443  13.0470  13.0545  13.0572
    16.4789  16.4819  19.6506  19.6576  19.7133

          k = 0.0000 0.0000 0.2500 (  2706 PWs)   bands (ev):

    -7.8549  -6.8172  -6.7602  -6.7578  -6.7578  -6.7564  -6.5801  -6.5720
     4.4753   4.4786   4.4817   4.4899   5.2253   5.5140   5.5141   6.5053
     6.5175   6.5356   6.5614   6.5811   6.6049   6.6124   6.6672   7.0505
     7.0508   7.1605   7.1606   7.4529   7.9626   7.9677   8.6395   8.6489
     8.9350   9.5167   9.6099   9.6129   9.8036   9.9691  10.0431  10.0461
    10.0841  10.1008  10.1733  10.2654  10.2698  10.3858  10.4016  10.5343
    10.5355  10.6029  10.6063  10.6482  10.9037  11.0003  11.0009  11.0412
    11.0482  11.1617  11.2341  11.2859  11.2874  11.3382  11.3405  11.3711
    12.8700  13.0286  13.0320  13.0349  13.5160  13.5590  13.6355  13.6375
    15.2111  18.5640  18.5666  18.5674  18.5679

          k = 0.3750-0.3750-0.1250 (  2734 PWs)   bands (ev):

    -7.5059  -7.1756  -6.9731  -6.7765  -6.7762  -6.6022  -6.5674  -6.5596
     4.9498   4.9562   4.9673   5.2977   5.4112   5.4885   5.5126   6.1635
     6.1983   6.2235   6.2517   6.5688   6.5817   6.7317   6.7355   6.8470
     6.8772   6.9121   6.9802   7.3445   7.3639   7.7070   7.7502   8.0039
     9.4385   9.6344   9.8045   9.8812   9.9388   9.9553  10.0243  10.1249
    10.1282  10.1578  10.1979  10.2754  10.3075  10.3118  10.4676  10.5019
    10.7229  10.7281  10.7336  10.7445  10.8691  10.8976  11.0316  11.0691
    11.1594  11.1869  11.2173  11.2489  11.3237  11.3274  11.3455  11.4018
    12.7302  12.7739  12.8261  12.9224  13.2271  13.2502  13.3558  13.4245
    16.6917  17.5997  18.6687  19.3603  19.3618

          k = 0.2500-0.2500 0.0000 (  2742 PWs)   bands (ev):

    -7.6434  -7.0219  -7.0200  -6.7288  -6.7262  -6.6110  -6.6060  -6.5543
     4.7577   4.7665   5.0543   5.0565   5.2550   5.2559   5.6920   5.9524
     6.2712   6.2886   6.5124   6.7046   6.7291   6.7325   6.8976   6.9004
     6.9205   7.1430   7.1511   7.1790   7.4416   7.4420   7.6192   8.1110
     9.6381   9.6442   9.7730   9.8315   9.8866   9.8984  10.0346  10.0972
    10.1213  10.2084  10.2176  10.2199  10.2205  10.3502  10.3548  10.5067
    10.7107  10.7420  10.7424  10.8195  10.8947  11.0874  11.0875  11.1062
    11.2009  11.2019  11.2239  11.2351  11.2711  11.3371  11.3971  11.3979
    13.0321  13.0382  13.0477  13.0501  13.1063  13.1423  13.1442  13.2752
    16.0051  18.0574  18.0609  19.3742  19.3800

          k = 0.0000 0.0000-0.5000 (  2762 PWs)   bands (ev):

    -7.3175  -7.3137  -6.8259  -6.8205  -6.8204  -6.8194  -6.5257  -6.5164
     5.0018   5.0121   5.0131   5.0202   5.7589   5.7625   6.0853   6.0920
     6.0943   6.1000   6.3899   6.3965   6.6244   6.6442   6.6674   6.6765
     6.7053   6.7131   6.7170   6.7234   8.1367   8.1420   8.1489   8.1530
     9.2186   9.2431   9.9372   9.9432  10.0181  10.0216  10.0235  10.0387
    10.0400  10.0420  10.1483  10.1628  10.3309  10.3429  10.4810  10.4893
    10.5093  10.5119  10.5653  10.5749  10.9032  10.9052  10.9952  10.9982
    11.1392  11.1414  11.2175  11.2197  11.3272  11.3295  11.3320  11.3338
    12.4529  12.4553  12.7113  12.7132  13.5092  13.5106  13.6086  13.6106
    17.6620  17.6666  19.2477  19.2500  19.2511

          k = 0.0000 0.2500-0.5000 (  2740 PWs)   bands (ev):

    -7.1603  -7.1550  -7.1545  -7.1545  -6.5919  -6.5844  -6.5822  -6.5783
     5.2683   5.2693   5.2709   5.3190   5.3683   5.5298   5.5375   5.6465
     6.2098   6.2417   6.2466   6.2782   6.5992   6.6104   6.6232   6.7500
     6.8858   7.2558   7.2571   7.4480   7.4661   7.4918   7.4958   7.5484
     9.6933   9.7210   9.7221   9.7927   9.9764  10.0273  10.0281  10.0544
    10.1067  10.2558  10.2751  10.2803  10.3334  10.3347  10.3902  10.4546
    10.6052  10.6532  10.6544  10.6810  10.9394  10.9398  10.9605  10.9820
    11.1661  11.1766  11.1783  11.2718  11.2871  11.2912  11.3577  11.3580
    12.7665  12.8806  12.8823  12.9950  13.1457  13.1889  13.1916  13.2353
    18.0156  18.0320  18.0360  18.0524  20.8598

          k = 0.1250 0.1250 0.1250 (  2743 PWs)   bands (ev):

    -7.9080  -6.9323  -6.6906  -6.6906  -6.6866  -6.6435  -6.6435  -6.6359
     4.3324   4.3324   4.3422   4.5988   5.3366   5.3366   5.3373   6.4616
     6.4616   6.4695   6.6035   6.6035   6.6150   6.6821   6.6821   7.2029
     7.2029   7.2062   7.6986   7.6986   7.6986   7.9637   8.4438   8.4438
     9.2395   9.2455   9.2455   9.6020   9.6020   9.9882  10.0519  10.0519
    10.0590  10.2641  10.2683  10.2683  10.5922  10.5932  10.5932  10.6156
    10.6156  10.7154  10.7154  10.7171  10.9067  10.9067  10.9321  10.9321
    10.9337  11.0259  11.2489  11.2489  11.2505  11.3863  11.3874  11.3874
    13.3264  13.3264  13.3420  13.3420  13.3436  13.3498  13.3498  13.3515
    14.7651  17.5938  18.6745  18.6747  18.6747

          k =-0.2500-0.2500-0.2500 (  2764 PWs)   bands (ev):

    -7.4549  -7.4469  -6.6853  -6.6853  -6.6750  -6.6559  -6.6559  -6.6548
     4.9957   4.9957   5.0050   5.1063   5.1063   5.1075   6.0659   6.1111
     6.2405   6.2405   6.2508   6.6841   6.6845   6.6845   6.7309   6.7309
     6.7430   6.9640   6.9640   7.4401   7.4401   7.4401   7.8560   7.8560
     9.4657   9.4749   9.4749   9.6580   9.6580  10.1027  10.1065  10.1065
    10.1149  10.4422  10.4428  10.4428  10.4955  10.4955  10.4958  10.7197
    10.7197  10.8351  10.8351  10.8352  10.8645  11.0497  11.0510  11.0510
    11.2372  11.2372  11.2388  11.2942  11.2942  11.3939  11.3953  11.3953
    13.0307  13.0307  13.0337  13.0484  13.0484  13.0631  13.0631  13.0653
    16.4087  16.5560  19.6264  19.6264  19.6421

          k =-0.3750-0.1250-0.3750 (  2734 PWs)   bands (ev):

    -7.5060  -7.1758  -6.9732  -6.7767  -6.7766  -6.6017  -6.5670  -6.5595
     4.9507   4.9619   4.9637   5.2742   5.4268   5.4870   5.4922   6.2070
     6.2136   6.2172   6.2532   6.6363   6.6503   6.6564   6.6846   6.6903
     6.8139   7.0681   7.0723   7.2577   7.3690   7.7409   7.7522   8.0408
     9.3342   9.5271   9.7391   9.7459   9.7712  10.0479  10.0814  10.0878
    10.2762  10.2786  10.4071  10.4125  10.4327  10.5423  10.5463  10.5480
    10.5621  10.6419  10.6421  10.6421  10.8334  10.8727  10.8733  10.9522
    11.0633  11.2353  11.2668  11.2937  11.2937  11.3521  11.3532  11.4153
    12.6855  12.8311  12.8754  12.8779  13.2729  13.3270  13.3340  13.3362
    16.6911  17.6021  18.6681  19.3575  19.3586

          k = 0.3750-0.1250 0.3750 (  2734 PWs)   bands (ev):

    -7.5059  -7.1757  -6.9731  -6.7764  -6.7762  -6.6021  -6.5673  -6.5598
     4.9557   4.9638   4.9644   5.2326   5.4893   5.4921   5.4982   6.1112
     6.2170   6.2176   6.3335   6.5515   6.5555   6.6464   6.8056   6.8076
     6.8175   7.0306   7.0341   7.1403   7.4951   7.7340   7.7621   7.9886
     9.3627   9.5401   9.9189   9.9367  10.0003  10.0122  10.0300  10.0334
    10.0468  10.1656  10.1998  10.2043  10.3918  10.4342  10.4882  10.4908
    10.6504  10.6872  10.6899  10.7024  10.8880  10.9404  11.0875  11.0885
    11.2076  11.2097  11.2248  11.2617  11.2692  11.2712  11.3396  11.3416
    12.7322  12.7913  12.8726  12.8750  13.2468  13.3328  13.3355  13.3461
    16.6912  17.6007  18.6702  19.3585  19.3594

          k =-0.2500 0.0000-0.2500 (  2742 PWs)   bands (ev):

    -7.6435  -7.0221  -7.0201  -6.7297  -6.7265  -6.6099  -6.6055  -6.5542
     4.7562   4.7640   5.0641   5.0713   5.2320   5.2342   5.6941   5.9541
     6.2991   6.3035   6.5696   6.6580   6.6690   6.7742   6.8449   6.9062
     7.0068   7.1462   7.1535   7.1937   7.1966   7.4776   7.8234   8.1088
     9.5365   9.5944   9.6148   9.6251   9.7582  10.0602  10.0660  10.1184
    10.2314  10.2331  10.2935  10.3754  10.4385  10.5488  10.5495  10.5530
    10.6255  10.6528  10.6576  10.7354  10.7564  10.8137  11.0419  11.0420
    11.0975  11.2625  11.2633  11.3322  11.3616  11.3628  11.3783  11.3996
    13.0342  13.0391  13.0456  13.0477  13.0561  13.1977  13.1994  13.2277
    16.0063  18.0573  18.0610  19.3696  19.3762

 ------ SPIN DOWN ----------


          k = 0.0000 0.0000 0.0000 (  2733 PWs)   bands (ev):

    -8.0815  -6.6916  -6.6906  -6.6904  -6.6904  -6.6303  -6.6303  -6.6227
     4.0154   4.0154   4.0187   4.0323   5.3259   5.3259   5.3259   6.5116
     6.5116   6.5214   6.5214   6.5267   6.5536   6.5536   6.5559   7.9486
     7.9499   7.9499   7.9536   7.9536   7.9549   8.8169   8.8169   8.8180
     9.2516   9.2516   9.2589   9.5515   9.5515   9.6844   9.8627   9.8627
     9.9336   9.9336   9.9378  10.2180  10.2203  10.2203  10.4759  10.4759
    10.4802  10.5905  10.5915  10.5915  10.8945  10.8945  11.0258  11.0258
    11.0262  11.1653  11.2438  11.2438  11.2585  11.3661  11.3714  11.3714
    13.5328  13.5328  13.5905  13.5905  13.5985  13.6739  13.6739  13.6828
    13.7591  17.7959  17.7990  17.8004  17.8004

          k =-0.1250 0.1250 0.1250 (  2743 PWs)   bands (ev):

    -7.9060  -6.9299  -6.6858  -6.6852  -6.6851  -6.6426  -6.6422  -6.6361
     4.3346   4.3372   4.3473   4.5956   5.3397   5.3400   5.3418   6.4246
     6.4327   6.4333   6.6217   6.6635   6.6653   6.6853   6.7294   7.1859
     7.1892   7.2253   7.6785   7.6810   7.6925   7.9599   8.3904   8.3979
     9.2700   9.3255   9.3256   9.6700   9.8140   9.9531  10.0343  10.0359
    10.1034  10.2095  10.2125  10.2393  10.3636  10.5086  10.5318  10.5322
    10.5423  10.6251  10.6783  10.6807  10.8825  10.9808  11.0940  11.1009
    11.1108  11.1638  11.2413  11.2432  11.2691  11.3005  11.3224  11.3349
    13.1982  13.2608  13.2667  13.2831  13.3706  13.4073  13.4084  13.4531
    14.7655  17.5928  18.6760  18.6779  18.6786

          k = 0.2500-0.2500-0.2500 (  2764 PWs)   bands (ev):

    -7.4491  -7.4485  -6.6738  -6.6676  -6.6674  -6.6664  -6.6638  -6.6596
     5.0426   5.0463   5.0574   5.0588   5.0615   5.0697   6.0825   6.0881
     6.3142   6.3202   6.3789   6.3847   6.4516   6.4596   6.8472   6.8504
     7.0012   7.0083   7.2950   7.3072   7.4683   7.4801   7.6187   7.6310
     9.6255   9.6275   9.8053   9.8119   9.8713   9.8822  10.0122  10.0169
    10.1491  10.1536  10.2154  10.2160  10.5232  10.5282  10.6261  10.6279
    10.6377  10.6539  10.8595  10.8652  10.9515  10.9589  11.2238  11.2331
    11.2391  11.2478  11.2814  11.2924  11.3066  11.3241  11.4184  11.4279
    13.0009  13.0086  13.0326  13.0391  13.0401  13.0471  13.0501  13.0576
    16.4798  16.4825  19.6489  19.6503  19.7124

          k = 0.0000 0.0000 0.2500 (  2706 PWs)   bands (ev):

    -7.8529  -6.8142  -6.7576  -6.7564  -6.7549  -6.7549  -6.5767  -6.5705
     4.4769   4.4798   4.4828   4.4930   5.2277   5.5155   5.5156   6.5193
     6.5208   6.5396   6.5728   6.5825   6.6087   6.6135   6.6687   7.0527
     7.0530   7.1537   7.1608   7.4511   7.9646   7.9697   8.6425   8.6514
     8.9405   9.5233   9.6187   9.6196   9.8025   9.9689  10.0485  10.0490
    10.0885  10.1027  10.1766  10.2675  10.2683  10.3871  10.4001  10.5321
    10.5368  10.6031  10.6049  10.6502  10.8927  10.9880  10.9991  11.0308
    11.0466  11.1540  11.2242  11.2769  11.2833  11.3243  11.3404  11.3641
    12.8607  13.0073  13.0321  13.0345  13.5098  13.5545  13.6261  13.6376
    15.2120  18.5643  18.5675  18.5679  18.5683

          k = 0.3750-0.3750-0.1250 (  2734 PWs)   bands (ev):

    -7.5039  -7.1735  -6.9707  -6.7750  -6.7733  -6.5997  -6.5640  -6.5583
     4.9525   4.9588   4.9701   5.2983   5.4164   5.4909   5.5108   6.1660
     6.2016   6.2278   6.2571   6.5774   6.5826   6.7339   6.7398   6.8512
     6.8790   6.9111   6.9809   7.3442   7.3664   7.7101   7.7493   8.0031
     9.4434   9.6402   9.8143   9.8852   9.9460   9.9596  10.0281  10.1298
    10.1321  10.1595  10.2011  10.2768  10.3036  10.3132  10.4679  10.5031
    10.7238  10.7272  10.7306  10.7461  10.8631  10.8887  11.0223  11.0622
    11.1526  11.1775  11.2114  11.2413  11.3169  11.3218  11.3402  11.3959
    12.7158  12.7644  12.8202  12.9158  13.2179  13.2460  13.3496  13.4198
    16.6927  17.6005  18.6694  19.3612  19.3633

          k = 0.2500-0.2500 0.0000 (  2742 PWs)   bands (ev):

    -7.6414  -7.0190  -7.0185  -6.7257  -6.7246  -6.6078  -6.6045  -6.5519
     4.7590   4.7688   5.0558   5.0628   5.2540   5.2566   5.6938   5.9550
     6.2772   6.2933   6.5187   6.7080   6.7340   6.7383   6.9024   6.9071
     6.9207   7.1461   7.1531   7.1773   7.4330   7.4412   7.6196   8.1134
     9.6473   9.6497   9.7805   9.8379   9.8932   9.8971  10.0326  10.1029
    10.1257  10.2177  10.2189  10.2225  10.2227  10.3485  10.3550  10.5067
    10.7040  10.7371  10.7416  10.8201  10.8854  11.0789  11.0833  11.0988
    11.1850  11.1996  11.2190  11.2284  11.2681  11.3312  11.3889  11.3957
    13.0055  13.0373  13.0456  13.0496  13.0959  13.1315  13.1436  13.2696
    16.0060  18.0581  18.0617  19.3748  19.3807

          k = 0.0000 0.0000-0.5000 (  2762 PWs)   bands (ev):

    -7.3146  -7.3124  -6.8228  -6.8193  -6.8177  -6.8175  -6.5222  -6.5149
     5.0054   5.0136   5.0206   5.0207   5.7581   5.7634   6.0885   6.0935
     6.0965   6.1023   6.3918   6.3974   6.6370   6.6447   6.6712   6.6770
     6.7086   6.7137   6.7181   6.7258   8.1393   8.1447   8.1494   8.1559
     9.2302   9.2432   9.9414   9.9436  10.0216  10.0239  10.0298  10.0383
    10.0394  10.0422  10.1593  10.1634  10.3405  10.3438  10.4896  10.4896
    10.5017  10.5123  10.5753  10.5761  10.8802  10.9055  10.9819  10.9983
    11.1189  11.1419  11.2053  11.2204  11.3131  11.3167  11.3294  11.3345
    12.4264  12.4553  12.6951  12.7132  13.4979  13.5109  13.5989  13.6108
    17.6629  17.6682  19.2483  19.2506  19.2535

          k = 0.0000 0.2500-0.5000 (  2740 PWs)   bands (ev):

    -7.1576  -7.1534  -7.1531  -7.1516  -6.5851  -6.5850  -6.5803  -6.5770
     5.2715   5.2718   5.2797   5.3198   5.3746   5.5332   5.5333   5.6438
     6.2180   6.2421   6.2481   6.2756   6.6103   6.6123   6.6248   6.7506
     6.8937   7.2533   7.2605   7.4539   7.4665   7.4943   7.4972   7.5445
     9.7022   9.7292   9.7306   9.7968   9.9767  10.0278  10.0287  10.0625
    10.1088  10.2628  10.2797  10.2807  10.3339  10.3360  10.3880  10.4566
    10.6071  10.6526  10.6530  10.6818  10.9304  10.9319  10.9535  10.9741
    11.1596  11.1601  11.1786  11.2642  11.2799  11.2838  11.3509  11.3524
    12.7551  12.8648  12.8825  12.9890  13.1350  13.1768  13.1916  13.2307
    18.0142  18.0332  18.0356  18.0576  20.8559

          k = 0.1250 0.1250 0.1250 (  2743 PWs)   bands (ev):

    -7.9061  -6.9301  -6.6859  -6.6856  -6.6856  -6.6422  -6.6422  -6.6351
     4.3339   4.3339   4.3443   4.6007   5.3384   5.3384   5.3392   6.4685
     6.4685   6.4706   6.6121   6.6121   6.6159   6.6873   6.6873   7.2021
     7.2021   7.2067   7.6959   7.6959   7.6997   7.9660   8.4413   8.4413
     9.2520   9.2520   9.2523   9.6110   9.6110   9.9942  10.0581  10.0581
    10.0590  10.2614  10.2664  10.2664  10.5920  10.5945  10.5945  10.6102
    10.6102  10.7146  10.7146  10.7176  10.8985  10.8985  10.9288  10.9288
    10.9296  11.0177  11.2360  11.2360  11.2507  11.3755  11.3821  11.3821
    13.3110  13.3110  13.3349  13.3349  13.3439  13.3479  13.3479  13.3516
    14.7658  17.5945  18.6736  18.6757  18.6757

          k =-0.2500-0.2500-0.2500 (  2764 PWs)   bands (ev):

    -7.4536  -7.4442  -6.6743  -6.6733  -6.6733  -6.6616  -6.6616  -6.6539
     5.0059   5.0059   5.0086   5.0979   5.0979   5.1089   6.0737   6.1073
     6.2543   6.2559   6.2559   6.6747   6.6747   6.6808   6.7440   6.7451
     6.7451   6.9740   6.9740   7.4302   7.4302   7.4409   7.8489   7.8489
     9.4850   9.4853   9.4853   9.6681   9.6681  10.1110  10.1149  10.1150
    10.1150  10.4222  10.4292  10.4292  10.5011  10.5011  10.5011  10.7075
    10.7075  10.8370  10.8383  10.8383  10.8538  11.0507  11.0519  11.0519
    11.2243  11.2243  11.2390  11.2950  11.2950  11.3830  11.3900  11.3900
    13.0086  13.0086  13.0336  13.0442  13.0442  13.0582  13.0582  13.0655
    16.4068  16.5598  19.6281  19.6298  19.6298

          k =-0.3750-0.1250-0.3750 (  2734 PWs)   bands (ev):

    -7.5040  -7.1737  -6.9707  -6.7750  -6.7732  -6.5996  -6.5641  -6.5581
     4.9520   4.9650   4.9663   5.2776   5.4295   5.4885   5.4941   6.2136
     6.2185   6.2224   6.2536   6.6444   6.6570   6.6600   6.6819   6.6887
     6.8199   7.0666   7.0705   7.2579   7.3704   7.7432   7.7508   8.0392
     9.3441   9.5350   9.7534   9.7535   9.7767  10.0520  10.0886  10.0889
    10.2736  10.2798  10.4092  10.4115  10.4314  10.5398  10.5411  10.5528
    10.5577  10.6387  10.6415  10.6432  10.8281  10.8651  10.8727  10.9448
    11.0580  11.2291  11.2576  11.2861  11.2892  11.3422  11.3494  11.4088
    12.6745  12.8165  12.8649  12.8779  13.2641  13.3137  13.3314  13.3363
    16.6920  17.6033  18.6690  19.3584  19.3590

          k = 0.3750-0.1250 0.3750 (  2734 PWs)   bands (ev):

    -7.5039  -7.1736  -6.9708  -6.7749  -6.7731  -6.5998  -6.5641  -6.5582
     4.9573   4.9658   4.9681   5.2381   5.4884   5.4930   5.4993   6.1132
     6.2188   6.2235   6.3364   6.5568   6.5617   6.6519   6.8072   6.8137
     6.8207   7.0277   7.0314   7.1489   7.4904   7.7343   7.7621   7.9888
     9.3708   9.5484   9.9341   9.9366  10.0101  10.0140  10.0336  10.0357
    10.0474  10.1690  10.2051  10.2062  10.3864  10.4333  10.4875  10.4875
    10.6455  10.6892  10.6905  10.7031  10.8843  10.9362  11.0736  11.0864
    11.1895  11.2069  11.2221  11.2506  11.2652  11.2684  11.3271  11.3406
    12.7178  12.7825  12.8600  12.8750  13.2391  13.3168  13.3357  13.3450
    16.6922  17.6016  18.6714  19.3591  19.3599

          k =-0.2500 0.0000-0.2500 (  2742 PWs)   bands (ev):

    -7.6415  -7.0191  -7.0186  -6.7255  -6.7249  -6.6078  -6.6040  -6.5519
     4.7578   4.7658   5.0661   5.0736   5.2354   5.2362   5.6952   5.9587
     6.3054   6.3077   6.5788   6.6635   6.6690   6.7834   6.8446   6.9143
     7.0029   7.1480   7.1558   7.1912   7.1950   7.4727   7.8192   8.1113
     9.5502   9.6012   9.6278   9.6289   9.7657  10.0658  10.0673  10.1239
    10.2288  10.2361  10.2990  10.3721  10.4386  10.5437  10.5485  10.5510
    10.6171  10.6553  10.6581  10.7243  10.7554  10.8106  11.0350  11.0397
    11.0885  11.2507  11.2598  11.3250  11.3516  11.3571  11.3748  11.3987
    13.0058  13.0389  13.0434  13.0466  13.0490  13.1826  13.1991  13.2238
    16.0072  18.0579  18.0622  19.3703  19.3755

     the Fermi energy is    11.9432 ev

!    total energy              =    -942.11217537 Ry
     Harris-Foulkes estimate   =    -942.11217535 Ry
     estimated scf accuracy    <          5.3E-09 Ry

     The total energy is the sum of the following terms:

     one-electron contribution =     -56.34273156 Ry
     hartree contribution      =     175.72574775 Ry
     xc contribution           =    -297.54161905 Ry
     ewald contribution        =    -763.85740583 Ry
     Hubbard energy            =      -0.09616667 Ry
     smearing contrib. (-TS)   =       0.00000000 Ry

     total magnetization       =     0.00 Bohr mag/cell
     absolute magnetization    =    12.27 Bohr mag/cell

     convergence has been achieved in   8 iterations

     Writing output data file nio.save
 
     init_run     :     14.27s CPU     15.95s WALL (       1 calls)
     electrons    :    303.83s CPU    322.16s WALL (       1 calls)

     Called by init_run:
     wfcinit      :      0.65s CPU      1.17s WALL (       1 calls)
     potinit      :      1.10s CPU      1.33s WALL (       1 calls)

     Called by electrons:
     c_bands      :    113.50s CPU    120.06s WALL (       8 calls)
     sum_band     :    103.63s CPU    106.42s WALL (       8 calls)
     v_of_rho     :      8.38s CPU      9.41s WALL (       9 calls)
     newd         :     84.91s CPU     93.42s WALL (       9 calls)
     mix_rho      :      1.32s CPU      1.46s WALL (       8 calls)

     Called by c_bands:
     init_us_2    :      1.17s CPU      1.25s WALL (     119 calls)
     cegterg      :    110.16s CPU    116.09s WALL (      56 calls)

     Called by *egterg:
     h_psi        :     79.87s CPU     83.30s WALL (     245 calls)
     s_psi        :      6.92s CPU      6.90s WALL (     252 calls)
     g_psi        :      0.36s CPU      0.38s WALL (     189 calls)
     cdiaghg      :      6.42s CPU      6.47s WALL (     238 calls)

     Called by h_psi:
     add_vuspsi   :      6.61s CPU      6.60s WALL (     245 calls)

     General routines
     calbec       :     11.58s CPU     11.60s WALL (     609 calls)
     fft          :      7.32s CPU      8.31s WALL (     267 calls)
     ffts         :      0.07s CPU      0.11s WALL (      34 calls)
     fftw         :     44.17s CPU     48.44s WALL (   25520 calls)
     interpolate  :      1.26s CPU      1.65s WALL (      34 calls)
     davcio       :      0.01s CPU      1.97s WALL (     350 calls)
 
     Parallel routines
     fft_scatter  :      8.72s CPU     10.40s WALL (   25821 calls)
     EXX routines
 
     PWSCF        :  5m18.48s CPU     5m38.64s WALL

 
   This run was terminated on:  16:35:23  16Jun2012            

=------------------------------------------------------------------------------=
   JOB DONE.
=------------------------------------------------------------------------------=
