
     Program PWSCF v.5.0        starts on 16Jun2012 at 16:35:26 

     This program is part of the open-source Quantum ESPRESSO suite
     for quantum simulation of materials; please cite
         "P. Giannozzi et al., J. Phys.:Condens. Matter 21 395502 (2009);
          URL http://www.quantum-espresso.org", 
     in publications or presentations arising from this work. More details at
     http://www.quantum-espresso.org/quote.php

     Parallel version (MPI), running on     4 processors
     K-points division:     npool     =    4

     Current dimensions of program PWSCF are:
     Max number of different atomic species (ntypx) = 10
     Max number of k-points (npk) =  40000
     Max angular momentum in pseudopotentials (lmaxx) =  3
     Waiting for input...
     Reading input from standard input
               file Ni.pbe-nd-rrkjus.UPF: wavefunction(s)  4S renormalized
               file Ni.pbe-nd-rrkjus.UPF: wavefunction(s)  4S renormalized
               file Ni.pbe-nd-rrkjus.UPF: wavefunction(s)  4S renormalized
               file O.pbe-rrkjus.UPF: wavefunction(s)  2S renormalized

     Subspace diagonalization in iterative solution of the eigenvalue problem:
     a serial algorithm will be used

 
     G-vector sticks info
     --------------------
     sticks:   dense  smooth     PW     G-vecs:    dense   smooth      PW
     Sum        2587    1039    301                86547    22075    3479
 


     bravais-lattice index     =            0
     lattice parameter (alat)  =       7.9000  a.u.
     unit-cell volume          =     986.0780 (a.u.)^3
     number of atoms/cell      =           16
     number of atomic types    =            4
     number of electrons       =       128.00
     number of Kohn-Sham states=           77
     kinetic-energy cutoff     =      30.0000  Ry
     charge density cutoff     =     300.0000  Ry
     convergence threshold     =      1.0E-08
     mixing beta               =       0.3000
     number of iterations used =            8  plain     mixing
     Exchange-correlation      =  SLA  PW   PBE  PBE ( 1 4 3 4 0)
     EXX-fraction              =        0.00

     celldm(1)=   7.900000  celldm(2)=   0.000000  celldm(3)=   0.000000
     celldm(4)=   0.000000  celldm(5)=   0.000000  celldm(6)=   0.000000

     crystal axes: (cart. coord. in units of alat)
               a(1) = (   1.000000   1.000000   0.000000 )  
               a(2) = (   1.000000   0.000000   1.000000 )  
               a(3) = (   0.000000   1.000000   1.000000 )  

     reciprocal axes: (cart. coord. in units 2 pi/alat)
               b(1) = (  0.500000  0.500000 -0.500000 )  
               b(2) = (  0.500000 -0.500000  0.500000 )  
               b(3) = ( -0.500000  0.500000  0.500000 )  


     PseudoPot. # 1 for Ni read from file:
     ../pseudo/Ni.pbe-nd-rrkjus.UPF
     MD5 check sum: 8081f0a005c9a5470caab1a58e82ecb2
     Pseudo is Ultrasoft + core correction, Zval = 10.0
     Generated by new atomic code, or converted to UPF format
     Using radial grid of 1203 points,  6 beta functions with: 
                l(1) =   0
                l(2) =   0
                l(3) =   1
                l(4) =   1
                l(5) =   2
                l(6) =   2
     Q(r) pseudized with 0 coefficients 


     PseudoPot. # 2 for Ni read from file:
     ../pseudo/Ni.pbe-nd-rrkjus.UPF
     MD5 check sum: 8081f0a005c9a5470caab1a58e82ecb2
     Pseudo is Ultrasoft + core correction, Zval = 10.0
     Generated by new atomic code, or converted to UPF format
     Using radial grid of 1203 points,  6 beta functions with: 
                l(1) =   0
                l(2) =   0
                l(3) =   1
                l(4) =   1
                l(5) =   2
                l(6) =   2
     Q(r) pseudized with 0 coefficients 


     PseudoPot. # 3 for Ni read from file:
     ../pseudo/Ni.pbe-nd-rrkjus.UPF
     MD5 check sum: 8081f0a005c9a5470caab1a58e82ecb2
     Pseudo is Ultrasoft + core correction, Zval = 10.0
     Generated by new atomic code, or converted to UPF format
     Using radial grid of 1203 points,  6 beta functions with: 
                l(1) =   0
                l(2) =   0
                l(3) =   1
                l(4) =   1
                l(5) =   2
                l(6) =   2
     Q(r) pseudized with 0 coefficients 


     PseudoPot. # 4 for O  read from file:
     ../pseudo/O.pbe-rrkjus.UPF
     MD5 check sum: 390ba29e75625707450f3bd3f0eb6be9
     Pseudo is Ultrasoft, Zval =  6.0
     Generated by new atomic code, or converted to UPF format
     Using radial grid of 1269 points,  4 beta functions with: 
                l(1) =   0
                l(2) =   0
                l(3) =   1
                l(4) =   1
     Q(r) pseudized with 0 coefficients 


     atomic species   valence    mass     pseudopotential
        Ni1           10.00     1.00000     Ni( 1.00)
        Ni2           10.00     1.00000     Ni( 1.00)
        Ni3           10.00     1.00000     Ni( 1.00)
        O1             6.00     1.00000     O ( 1.00)

     Starting magnetic structure 
     atomic species   magnetization
        Ni1          0.500
        Ni2          0.500
        Ni3         -0.500
        O1           0.000
 -----
     simplified LDA+U calculation, Hubbard_lmax = 2
     atomic species  L   Hubbard U  Hubbard alpha
        Ni1          2    0.000000    0.150000
        Ni2          2    0.000000    0.000000
        Ni3          2    0.000000    0.000000
        O1           1    0.000000    0.000000
 -----

     12 Sym. Ops., with inversion, found



   Cartesian axes

     site n.     atom                  positions (alat units)
         1           Ni1 tau(   1) = (   0.0000000   0.0000000   0.0000000  )
         2           Ni2 tau(   2) = (   1.0000000   0.5000000   0.5000000  )
         3           Ni2 tau(   3) = (   0.5000000   1.0000000   0.5000000  )
         4           Ni2 tau(   4) = (   0.5000000   0.5000000   1.0000000  )
         5           Ni3 tau(   5) = (   0.5000000   0.5000000   0.0000000  )
         6           Ni3 tau(   6) = (   0.5000000   0.0000000   0.5000000  )
         7           Ni3 tau(   7) = (   0.0000000   0.5000000   0.5000000  )
         8           Ni3 tau(   8) = (   1.0000000   1.0000000   1.0000000  )
         9           O1  tau(   9) = (   0.0000000   0.0000000   0.5000000  )
        10           O1  tau(  10) = (   0.5000000   0.5000000   0.5000000  )
        11           O1  tau(  11) = (   0.0000000   0.5000000   1.0000000  )
        12           O1  tau(  12) = (   0.5000000   0.0000000   1.0000000  )
        13           O1  tau(  13) = (   1.0000000   0.5000000   1.0000000  )
        14           O1  tau(  14) = (   0.5000000   1.0000000   1.0000000  )
        15           O1  tau(  15) = (   0.5000000   0.5000000   1.5000000  )
        16           O1  tau(  16) = (   1.0000000   1.0000000   1.5000000  )

     number of k points=    26  gaussian smearing, width (Ry)=  0.0100
                       cart. coord. in units 2pi/alat
        k(    1) = (   0.0000000   0.0000000   0.0000000), wk =   0.0156250
        k(    2) = (  -0.1250000   0.1250000   0.1250000), wk =   0.0937500
        k(    3) = (   0.2500000  -0.2500000  -0.2500000), wk =   0.0468750
        k(    4) = (   0.0000000   0.0000000   0.2500000), wk =   0.0937500
        k(    5) = (   0.3750000  -0.3750000  -0.1250000), wk =   0.1875000
        k(    6) = (   0.2500000  -0.2500000   0.0000000), wk =   0.0937500
        k(    7) = (   0.0000000   0.0000000  -0.5000000), wk =   0.0468750
        k(    8) = (   0.0000000   0.2500000  -0.5000000), wk =   0.0937500
        k(    9) = (   0.1250000   0.1250000   0.1250000), wk =   0.0312500
        k(   10) = (  -0.2500000  -0.2500000  -0.2500000), wk =   0.0156250
        k(   11) = (  -0.3750000  -0.1250000  -0.3750000), wk =   0.0937500
        k(   12) = (   0.3750000  -0.1250000   0.3750000), wk =   0.0937500
        k(   13) = (  -0.2500000   0.0000000  -0.2500000), wk =   0.0937500
        k(   14) = (   0.0000000   0.0000000   0.0000000), wk =   0.0156250
        k(   15) = (  -0.1250000   0.1250000   0.1250000), wk =   0.0937500
        k(   16) = (   0.2500000  -0.2500000  -0.2500000), wk =   0.0468750
        k(   17) = (   0.0000000   0.0000000   0.2500000), wk =   0.0937500
        k(   18) = (   0.3750000  -0.3750000  -0.1250000), wk =   0.1875000
        k(   19) = (   0.2500000  -0.2500000   0.0000000), wk =   0.0937500
        k(   20) = (   0.0000000   0.0000000  -0.5000000), wk =   0.0468750
        k(   21) = (   0.0000000   0.2500000  -0.5000000), wk =   0.0937500
        k(   22) = (   0.1250000   0.1250000   0.1250000), wk =   0.0312500
        k(   23) = (  -0.2500000  -0.2500000  -0.2500000), wk =   0.0156250
        k(   24) = (  -0.3750000  -0.1250000  -0.3750000), wk =   0.0937500
        k(   25) = (   0.3750000  -0.1250000   0.3750000), wk =   0.0937500
        k(   26) = (  -0.2500000   0.0000000  -0.2500000), wk =   0.0937500

     Dense  grid:    86547 G-vectors     FFT dimensions: (  64,  64,  64)

     Smooth grid:    22075 G-vectors     FFT dimensions: (  40,  40,  40)

     Largest allocated arrays     est. size (Mb)     dimensions
        Kohn-Sham Wavefunctions         3.25 Mb     (   2764,   77)
        Atomic wavefunctions            3.37 Mb     (   2764,   80)
        NL pseudopotentials             8.77 Mb     (   2764,  208)
        Each V/rho on FFT grid          8.00 Mb     ( 262144,   2)
        Each G-vector array             0.66 Mb     (  86547)
        G-vector shells                 0.00 Mb     (    635)
     Largest temporary arrays     est. size (Mb)     dimensions
        Auxiliary wavefunctions        12.99 Mb     (   2764,  308)
        Each subspace H/S matrix        1.45 Mb     ( 308, 308)
        Each <psi_i|beta_j> matrix      0.24 Mb     (    208,   77)
        Arrays for rho mixing          32.00 Mb     ( 262144,   8)

     Check: negative/imaginary core charge=   -0.000047    0.000000

     The initial density is read from file :
     ./temp/nio.save/charge-density.dat

     Number of +U iterations with fixed ns =  0
     Starting occupations:
 --- enter write_ns ---
 LDA+U parameters:
U( 1)     =  0.00000000
alpha( 1) =  0.15000000
U( 2)     =  0.00000000
alpha( 2) =  0.00000000
U( 3)     =  0.00000000
alpha( 3) =  0.00000000
U( 4)     =  0.00000000
alpha( 4) =  0.00000000
atom    1   Tr[ns(na)] (up, down, total) =   4.95240  3.75362  8.70602
   spin  1
    eigenvalues: 
  0.980  0.980  0.997  0.997  0.997
    eigenvectors:
  0.161  0.839  0.000  0.000  0.000
  0.000  0.000  0.218  0.449  0.333
  0.000  0.000  0.120  0.546  0.333
  0.839  0.161  0.000  0.000  0.000
  0.000  0.000  0.662  0.005  0.333
    occupations:
  0.980  0.000  0.000  0.000  0.000
  0.000  0.997  0.000  0.000  0.000
  0.000  0.000  0.997  0.000  0.000
  0.000  0.000  0.000  0.980  0.000
  0.000  0.000  0.000  0.000  0.997
   spin  2
    eigenvalues: 
  0.384  0.384  0.995  0.995  0.995
    eigenvectors:
  0.002  0.998  0.000  0.000  0.000
  0.000  0.000  0.000  0.667  0.333
  0.000  0.000  0.499  0.168  0.333
  0.998  0.002  0.000  0.000  0.000
  0.000  0.000  0.501  0.166  0.333
    occupations:
  0.384  0.001  0.001  0.000  0.001
  0.001  0.995  0.000  0.001  0.000
  0.001  0.000  0.995 -0.001  0.000
  0.000  0.001 -0.001  0.384  0.000
  0.001  0.000  0.000  0.000  0.995
atomic mag. moment =     1.198787
atom    2   Tr[ns(na)] (up, down, total) =   4.95241  3.75363  8.70603
   spin  1
    eigenvalues: 
  0.980  0.980  0.997  0.997  0.997
    eigenvectors:
  0.250  0.750  0.000  0.000  0.000
  0.000  0.000  0.500  0.167  0.333
  0.000  0.000  0.000  0.667  0.333
  0.750  0.250  0.000  0.000  0.000
  0.000  0.000  0.500  0.167  0.333
    occupations:
  0.980  0.000  0.000  0.000  0.000
  0.000  0.997  0.000  0.000  0.000
  0.000  0.000  0.997  0.000  0.000
  0.000  0.000  0.000  0.980  0.000
  0.000  0.000  0.000  0.000  0.997
   spin  2
    eigenvalues: 
  0.384  0.384  0.995  0.995  0.995
    eigenvectors:
  0.750  0.250  0.000  0.000  0.000
  0.000  0.000  0.500  0.167  0.333
  0.000  0.000  0.000  0.666  0.334
  0.250  0.750  0.000  0.000  0.000
  0.000  0.000  0.500  0.167  0.333
    occupations:
  0.384  0.001  0.001  0.000  0.001
  0.001  0.995  0.000  0.001  0.000
  0.001  0.000  0.995 -0.001  0.000
  0.000  0.001 -0.001  0.384  0.000
  0.001  0.000  0.000  0.000  0.995
atomic mag. moment =     1.198778
atom    3   Tr[ns(na)] (up, down, total) =   4.95241  3.75363  8.70603
   spin  1
    eigenvalues: 
  0.980  0.980  0.997  0.997  0.997
    eigenvectors:
  0.250  0.750  0.000  0.000  0.000
  0.000  0.000  0.000  0.667  0.333
  0.000  0.000  0.500  0.167  0.333
  0.750  0.250  0.000  0.000  0.000
  0.000  0.000  0.500  0.167  0.333
    occupations:
  0.980  0.000  0.000  0.000  0.000
  0.000  0.997  0.000  0.000  0.000
  0.000  0.000  0.997  0.000  0.000
  0.000  0.000  0.000  0.980  0.000
  0.000  0.000  0.000  0.000  0.997
   spin  2
    eigenvalues: 
  0.384  0.384  0.995  0.995  0.995
    eigenvectors:
  0.750  0.250  0.000  0.000  0.000
  0.000  0.000  0.000  0.666  0.334
  0.000  0.000  0.500  0.167  0.333
  0.250  0.750  0.000  0.000  0.000
  0.000  0.000  0.500  0.167  0.333
    occupations:
  0.384  0.001  0.001  0.000  0.001
  0.001  0.995  0.000  0.001  0.000
  0.001  0.000  0.995 -0.001  0.000
  0.000  0.001 -0.001  0.384  0.000
  0.001  0.000  0.000  0.000  0.995
atomic mag. moment =     1.198778
atom    4   Tr[ns(na)] (up, down, total) =   4.95241  3.75363  8.70603
   spin  1
    eigenvalues: 
  0.980  0.980  0.997  0.997  0.997
    eigenvectors:
  1.000  0.000  0.000  0.000  0.000
  0.000  0.000  0.500  0.167  0.333
  0.000  0.000  0.500  0.167  0.333
  0.000  1.000  0.000  0.000  0.000
  0.000  0.000  0.000  0.667  0.333
    occupations:
  0.980  0.000  0.000  0.000  0.000
  0.000  0.997  0.000  0.000  0.000
  0.000  0.000  0.997  0.000  0.000
  0.000  0.000  0.000  0.980  0.000
  0.000  0.000  0.000  0.000  0.997
   spin  2
    eigenvalues: 
  0.384  0.384  0.995  0.995  0.995
    eigenvectors:
  0.000  1.000  0.000  0.000  0.000
  0.000  0.000  0.500  0.167  0.333
  0.000  0.000  0.500  0.167  0.333
  1.000  0.000  0.000  0.000  0.000
  0.000  0.000  0.000  0.666  0.334
    occupations:
  0.384  0.001  0.001  0.000  0.001
  0.001  0.995  0.000  0.001  0.000
  0.001  0.000  0.995 -0.001  0.000
  0.000  0.001 -0.001  0.384  0.000
  0.001  0.000  0.000  0.000  0.995
atomic mag. moment =     1.198778
atom    5   Tr[ns(na)] (up, down, total) =   3.75362  4.95240  8.70603
   spin  1
    eigenvalues: 
  0.384  0.384  0.995  0.995  0.995
    eigenvectors:
  0.000  1.000  0.000  0.000  0.000
  0.000  0.000  0.167  0.500  0.333
  0.000  0.000  0.167  0.500  0.333
  1.000  0.000  0.000  0.000  0.000
  0.000  0.000  0.667  0.000  0.333
    occupations:
  0.384  0.001  0.001  0.000  0.001
  0.001  0.995  0.000  0.001  0.000
  0.001  0.000  0.995 -0.001  0.000
  0.000  0.001 -0.001  0.384  0.000
  0.001  0.000  0.000  0.000  0.995
   spin  2
    eigenvalues: 
  0.980  0.980  0.997  0.997  0.997
    eigenvectors:
  1.000  0.000  0.000  0.000  0.000
  0.000  0.000  0.500  0.167  0.333
  0.000  0.000  0.500  0.167  0.333
  0.000  1.000  0.000  0.000  0.000
  0.000  0.000  0.000  0.666  0.334
    occupations:
  0.980  0.000  0.000  0.000  0.000
  0.000  0.997  0.000  0.000  0.000
  0.000  0.000  0.997  0.000  0.000
  0.000  0.000  0.000  0.980  0.000
  0.000  0.000  0.000  0.000  0.997
atomic mag. moment =    -1.198782
atom    6   Tr[ns(na)] (up, down, total) =   3.75362  4.95240  8.70603
   spin  1
    eigenvalues: 
  0.384  0.384  0.995  0.995  0.995
    eigenvectors:
  0.750  0.250  0.000  0.000  0.000
  0.000  0.000  0.667  0.000  0.333
  0.000  0.000  0.167  0.500  0.333
  0.250  0.750  0.000  0.000  0.000
  0.000  0.000  0.167  0.500  0.333
    occupations:
  0.384  0.001  0.001  0.000  0.001
  0.001  0.995  0.000  0.001  0.000
  0.001  0.000  0.995 -0.001  0.000
  0.000  0.001 -0.001  0.384  0.000
  0.001  0.000  0.000  0.000  0.995
   spin  2
    eigenvalues: 
  0.980  0.980  0.997  0.997  0.997
    eigenvectors:
  0.250  0.750  0.000  0.000  0.000
  0.000  0.000  0.000  0.666  0.334
  0.000  0.000  0.500  0.167  0.333
  0.750  0.250  0.000  0.000  0.000
  0.000  0.000  0.500  0.167  0.333
    occupations:
  0.980  0.000  0.000  0.000  0.000
  0.000  0.997  0.000  0.000  0.000
  0.000  0.000  0.997  0.000  0.000
  0.000  0.000  0.000  0.980  0.000
  0.000  0.000  0.000  0.000  0.997
atomic mag. moment =    -1.198782
atom    7   Tr[ns(na)] (up, down, total) =   3.75362  4.95240  8.70603
   spin  1
    eigenvalues: 
  0.384  0.384  0.995  0.995  0.995
    eigenvectors:
  0.750  0.250  0.000  0.000  0.000
  0.000  0.000  0.167  0.500  0.333
  0.000  0.000  0.667  0.000  0.333
  0.250  0.750  0.000  0.000  0.000
  0.000  0.000  0.167  0.500  0.333
    occupations:
  0.384  0.001  0.001  0.000  0.001
  0.001  0.995  0.000  0.001  0.000
  0.001  0.000  0.995 -0.001  0.000
  0.000  0.001 -0.001  0.384  0.000
  0.001  0.000  0.000  0.000  0.995
   spin  2
    eigenvalues: 
  0.980  0.980  0.997  0.997  0.997
    eigenvectors:
  0.250  0.750  0.000  0.000  0.000
  0.000  0.000  0.500  0.167  0.333
  0.000  0.000  0.000  0.666  0.334
  0.750  0.250  0.000  0.000  0.000
  0.000  0.000  0.500  0.167  0.333
    occupations:
  0.980  0.000  0.000  0.000  0.000
  0.000  0.997  0.000  0.000  0.000
  0.000  0.000  0.997  0.000  0.000
  0.000  0.000  0.000  0.980  0.000
  0.000  0.000  0.000  0.000  0.997
atomic mag. moment =    -1.198782
atom    8   Tr[ns(na)] (up, down, total) =   3.75362  4.95241  8.70603
   spin  1
    eigenvalues: 
  0.384  0.384  0.995  0.995  0.995
    eigenvectors:
  0.011  0.989  0.000  0.000  0.000
  0.000  0.000  0.110  0.557  0.333
  0.000  0.000  0.231  0.436  0.333
  0.989  0.011  0.000  0.000  0.000
  0.000  0.000  0.659  0.007  0.333
    occupations:
  0.384  0.001  0.001  0.000  0.001
  0.001  0.995  0.000  0.001  0.000
  0.001  0.000  0.995 -0.001  0.000
  0.000  0.001 -0.001  0.384  0.000
  0.001  0.000  0.000  0.000  0.995
   spin  2
    eigenvalues: 
  0.980  0.980  0.997  0.997  0.997
    eigenvectors:
  0.319  0.681  0.000  0.000  0.000
  0.000  0.000  0.031  0.635  0.333
  0.000  0.000  0.362  0.305  0.333
  0.681  0.319  0.000  0.000  0.000
  0.000  0.000  0.607  0.060  0.333
    occupations:
  0.980  0.000  0.000  0.000  0.000
  0.000  0.997  0.000  0.000  0.000
  0.000  0.000  0.997  0.000  0.000
  0.000  0.000  0.000  0.980  0.000
  0.000  0.000  0.000  0.000  0.997
atomic mag. moment =    -1.198781
atom    9   Tr[ns(na)] (up, down, total) =   2.81114  2.81114  5.62228
   spin  1
    eigenvalues: 
  0.937  0.937  0.938
    eigenvectors:
  0.667  0.000  0.333
  0.167  0.500  0.333
  0.167  0.500  0.333
    occupations:
  0.937  0.000  0.000
  0.000  0.937  0.000
  0.000  0.000  0.937
   spin  2
    eigenvalues: 
  0.937  0.937  0.938
    eigenvectors:
  0.000  0.666  0.334
  0.500  0.167  0.333
  0.500  0.167  0.333
    occupations:
  0.937  0.000  0.000
  0.000  0.937  0.000
  0.000  0.000  0.937
atomic mag. moment =     0.000000
atom   10   Tr[ns(na)] (up, down, total) =   2.81114  2.81114  5.62228
   spin  1
    eigenvalues: 
  0.937  0.937  0.938
    eigenvectors:
  0.520  0.147  0.333
  0.479  0.187  0.333
  0.001  0.666  0.333
    occupations:
  0.937  0.000  0.000
  0.000  0.937  0.000
  0.000  0.000  0.937
   spin  2
    eigenvalues: 
  0.937  0.937  0.938
    eigenvectors:
  0.345  0.322  0.333
  0.616  0.051  0.333
  0.039  0.628  0.333
    occupations:
  0.937  0.000  0.000
  0.000  0.937  0.000
  0.000  0.000  0.937
atomic mag. moment =     0.000001
atom   11   Tr[ns(na)] (up, down, total) =   2.81114  2.81114  5.62228
   spin  1
    eigenvalues: 
  0.937  0.937  0.938
    eigenvectors:
  0.167  0.500  0.333
  0.167  0.500  0.333
  0.667  0.000  0.333
    occupations:
  0.937  0.000  0.000
  0.000  0.937  0.000
  0.000  0.000  0.937
   spin  2
    eigenvalues: 
  0.937  0.937  0.938
    eigenvectors:
  0.500  0.167  0.333
  0.500  0.167  0.333
  0.000  0.666  0.334
    occupations:
  0.937  0.000  0.000
  0.000  0.937  0.000
  0.000  0.000  0.937
atomic mag. moment =     0.000000
atom   12   Tr[ns(na)] (up, down, total) =   2.81114  2.81114  5.62228
   spin  1
    eigenvalues: 
  0.937  0.937  0.938
    eigenvectors:
  0.167  0.500  0.333
  0.667  0.000  0.333
  0.167  0.500  0.333
    occupations:
  0.937  0.000  0.000
  0.000  0.937  0.000
  0.000  0.000  0.937
   spin  2
    eigenvalues: 
  0.937  0.937  0.938
    eigenvectors:
  0.500  0.167  0.333
  0.000  0.666  0.334
  0.500  0.167  0.333
    occupations:
  0.937  0.000  0.000
  0.000  0.937  0.000
  0.000  0.000  0.937
atomic mag. moment =     0.000000
atom   13   Tr[ns(na)] (up, down, total) =   2.81114  2.81114  5.62228
   spin  1
    eigenvalues: 
  0.937  0.937  0.938
    eigenvectors:
  0.167  0.500  0.333
  0.167  0.500  0.333
  0.667  0.000  0.333
    occupations:
  0.937  0.000  0.000
  0.000  0.937  0.000
  0.000  0.000  0.937
   spin  2
    eigenvalues: 
  0.937  0.937  0.938
    eigenvectors:
  0.500  0.167  0.333
  0.500  0.167  0.333
  0.000  0.666  0.334
    occupations:
  0.937  0.000  0.000
  0.000  0.937  0.000
  0.000  0.000  0.937
atomic mag. moment =     0.000000
atom   14   Tr[ns(na)] (up, down, total) =   2.81114  2.81114  5.62228
   spin  1
    eigenvalues: 
  0.937  0.937  0.938
    eigenvectors:
  0.167  0.500  0.333
  0.667  0.000  0.333
  0.167  0.500  0.333
    occupations:
  0.937  0.000  0.000
  0.000  0.937  0.000
  0.000  0.000  0.937
   spin  2
    eigenvalues: 
  0.937  0.937  0.938
    eigenvectors:
  0.500  0.167  0.333
  0.000  0.666  0.334
  0.500  0.167  0.333
    occupations:
  0.937  0.000  0.000
  0.000  0.937  0.000
  0.000  0.000  0.937
atomic mag. moment =     0.000000
atom   15   Tr[ns(na)] (up, down, total) =   2.81114  2.81114  5.62228
   spin  1
    eigenvalues: 
  0.937  0.937  0.938
    eigenvectors:
  0.421  0.246  0.333
  0.568  0.099  0.333
  0.011  0.656  0.333
    occupations:
  0.937  0.000  0.000
  0.000  0.937  0.000
  0.000  0.000  0.937
   spin  2
    eigenvalues: 
  0.937  0.937  0.938
    eigenvectors:
  0.345  0.322  0.333
  0.616  0.051  0.333
  0.039  0.628  0.333
    occupations:
  0.937  0.000  0.000
  0.000  0.937  0.000
  0.000  0.000  0.937
atomic mag. moment =     0.000001
atom   16   Tr[ns(na)] (up, down, total) =   2.81114  2.81114  5.62228
   spin  1
    eigenvalues: 
  0.937  0.937  0.938
    eigenvectors:
  0.667  0.000  0.333
  0.167  0.500  0.333
  0.167  0.500  0.333
    occupations:
  0.937  0.000  0.000
  0.000  0.937  0.000
  0.000  0.000  0.937
   spin  2
    eigenvalues: 
  0.937  0.937  0.938
    eigenvectors:
  0.000  0.666  0.334
  0.500  0.167  0.333
  0.500  0.167  0.333
    occupations:
  0.937  0.000  0.000
  0.000  0.937  0.000
  0.000  0.000  0.937
atomic mag. moment =     0.000000
N of occupied +U levels = 114.6264869
 --- exit write_ns ---
 Atomic wfc used for LDA+U Projector are NOT orthogonalized
     Starting wfc from file

     total cpu time spent up to now is       17.0 secs

     per-process dynamical memory:    86.3 Mb

     Self-consistent Calculation

     iteration #  1     ecut=    30.00 Ry     beta=0.30
     Davidson diagonalization with overlap
     c_bands:  1 eigenvalues not converged
     ethr =  9.70E-11,  avg # of iterations = 12.1
 --- enter write_ns ---
 LDA+U parameters:
U( 1)     =  0.00000000
alpha( 1) =  0.15000000
U( 2)     =  0.00000000
alpha( 2) =  0.00000000
U( 3)     =  0.00000000
alpha( 3) =  0.00000000
U( 4)     =  0.00000000
alpha( 4) =  0.00000000
atom    1   Tr[ns(na)] (up, down, total) =   4.94926  3.72230  8.67156
   spin  1
    eigenvalues: 
  0.979  0.979  0.997  0.997  0.997
    eigenvectors:
  0.143  0.857  0.000  0.000  0.000
  0.000  0.000  0.139  0.528  0.333
  0.000  0.000  0.196  0.471  0.333
  0.857  0.143  0.000  0.000  0.000
  0.000  0.000  0.665  0.002  0.333
    occupations:
  0.979  0.000  0.000  0.000  0.000
  0.000  0.997  0.000  0.000  0.000
  0.000  0.000  0.997  0.000  0.000
  0.000  0.000  0.000  0.979  0.000
  0.000  0.000  0.000  0.000  0.997
   spin  2
    eigenvalues: 
  0.369  0.369  0.995  0.995  0.995
    eigenvectors:
  0.193  0.807  0.000  0.000  0.000
  0.000  0.000  0.147  0.520  0.333
  0.000  0.000  0.188  0.479  0.333
  0.807  0.193  0.000  0.000  0.000
  0.000  0.000  0.666  0.001  0.333
    occupations:
  0.369  0.000  0.000  0.000  0.001
  0.000  0.995  0.000  0.001  0.000
  0.000  0.000  0.995 -0.001  0.000
  0.000  0.001 -0.001  0.369  0.000
  0.001  0.000  0.000  0.000  0.995
atomic mag. moment =     1.226963
atom    2   Tr[ns(na)] (up, down, total) =   4.95243  3.75451  8.70694
   spin  1
    eigenvalues: 
  0.980  0.980  0.997  0.997  0.997
    eigenvectors:
  0.250  0.750  0.000  0.000  0.000
  0.000  0.000  0.166  0.500  0.334
  0.000  0.000  0.669  0.000  0.331
  0.750  0.250  0.000  0.000  0.000
  0.000  0.000  0.166  0.500  0.334
    occupations:
  0.980  0.000  0.000  0.000  0.000
  0.000  0.997  0.000  0.000  0.000
  0.000  0.000  0.997  0.000  0.000
  0.000  0.000  0.000  0.980  0.000
  0.000  0.000  0.000  0.000  0.997
   spin  2
    eigenvalues: 
  0.384  0.384  0.995  0.995  0.996
    eigenvectors:
  0.750  0.250  0.000  0.000  0.000
  0.000  0.000  0.500  0.444  0.056
  0.000  0.000  0.000  0.111  0.889
  0.250  0.750  0.000  0.000  0.000
  0.000  0.000  0.500  0.444  0.056
    occupations:
  0.384  0.001  0.001  0.000  0.001
  0.001  0.995  0.000  0.001  0.000
  0.001  0.000  0.996 -0.001  0.000
  0.000  0.001 -0.001  0.384  0.000
  0.001  0.000  0.000  0.000  0.995
atomic mag. moment =     1.197919
atom    3   Tr[ns(na)] (up, down, total) =   4.95243  3.75451  8.70694
   spin  1
    eigenvalues: 
  0.980  0.980  0.997  0.997  0.997
    eigenvectors:
  0.250  0.750  0.000  0.000  0.000
  0.000  0.000  0.669  0.000  0.331
  0.000  0.000  0.166  0.500  0.334
  0.750  0.250  0.000  0.000  0.000
  0.000  0.000  0.166  0.500  0.334
    occupations:
  0.980  0.000  0.000  0.000  0.000
  0.000  0.997  0.000  0.000  0.000
  0.000  0.000  0.997  0.000  0.000
  0.000  0.000  0.000  0.980  0.000
  0.000  0.000  0.000  0.000  0.997
   spin  2
    eigenvalues: 
  0.384  0.384  0.995  0.995  0.996
    eigenvectors:
  0.750  0.250  0.000  0.000  0.000
  0.000  0.000  0.000  0.111  0.889
  0.000  0.000  0.500  0.444  0.056
  0.250  0.750  0.000  0.000  0.000
  0.000  0.000  0.500  0.444  0.056
    occupations:
  0.384  0.001  0.001  0.000  0.001
  0.001  0.996  0.000  0.001  0.000
  0.001  0.000  0.995 -0.001  0.000
  0.000  0.001 -0.001  0.384  0.000
  0.001  0.000  0.000  0.000  0.995
atomic mag. moment =     1.197919
atom    4   Tr[ns(na)] (up, down, total) =   4.95243  3.75451  8.70694
   spin  1
    eigenvalues: 
  0.980  0.980  0.997  0.997  0.997
    eigenvectors:
  1.000  0.000  0.000  0.000  0.000
  0.000  0.000  0.166  0.500  0.334
  0.000  0.000  0.166  0.500  0.334
  0.000  1.000  0.000  0.000  0.000
  0.000  0.000  0.669  0.000  0.331
    occupations:
  0.980  0.000  0.000  0.000  0.000
  0.000  0.997  0.000  0.000  0.000
  0.000  0.000  0.997  0.000  0.000
  0.000  0.000  0.000  0.980  0.000
  0.000  0.000  0.000  0.000  0.997
   spin  2
    eigenvalues: 
  0.384  0.384  0.995  0.995  0.996
    eigenvectors:
  0.000  1.000  0.000  0.000  0.000
  0.000  0.000  0.500  0.444  0.056
  0.000  0.000  0.500  0.444  0.056
  1.000  0.000  0.000  0.000  0.000
  0.000  0.000  0.000  0.111  0.889
    occupations:
  0.384  0.001  0.001  0.000  0.001
  0.001  0.995  0.000  0.001  0.000
  0.001  0.000  0.995 -0.001  0.000
  0.000  0.001 -0.001  0.384  0.000
  0.001  0.000  0.000  0.000  0.996
atomic mag. moment =     1.197919
atom    5   Tr[ns(na)] (up, down, total) =   3.75377  4.95253  8.70630
   spin  1
    eigenvalues: 
  0.384  0.384  0.995  0.995  0.995
    eigenvectors:
  0.000  1.000  0.000  0.000  0.000
  0.000  0.000  0.168  0.500  0.332
  0.000  0.000  0.168  0.500  0.332
  1.000  0.000  0.000  0.000  0.000
  0.000  0.000  0.664  0.000  0.336
    occupations:
  0.384  0.001  0.001  0.000  0.001
  0.001  0.995  0.000  0.001  0.000
  0.001  0.000  0.995 -0.001  0.000
  0.000  0.001 -0.001  0.384  0.000
  0.001  0.000  0.000  0.000  0.995
   spin  2
    eigenvalues: 
  0.980  0.980  0.997  0.997  0.997
    eigenvectors:
  0.000  1.000  0.000  0.000  0.000
  0.000  0.000  0.500  0.482  0.018
  0.000  0.000  0.500  0.482  0.018
  1.000  0.000  0.000  0.000  0.000
  0.000  0.000  0.000  0.037  0.963
    occupations:
  0.980  0.000  0.000  0.000  0.000
  0.000  0.997  0.000  0.000  0.000
  0.000  0.000  0.997  0.000  0.000
  0.000  0.000  0.000  0.980  0.000
  0.000  0.000  0.000  0.000  0.997
atomic mag. moment =    -1.198765
atom    6   Tr[ns(na)] (up, down, total) =   3.75377  4.95253  8.70630
   spin  1
    eigenvalues: 
  0.384  0.384  0.995  0.995  0.995
    eigenvectors:
  0.750  0.250  0.000  0.000  0.000
  0.000  0.000  0.664  0.000  0.336
  0.000  0.000  0.168  0.500  0.332
  0.250  0.750  0.000  0.000  0.000
  0.000  0.000  0.168  0.500  0.332
    occupations:
  0.384  0.000  0.001  0.000  0.001
  0.000  0.995  0.000  0.001  0.000
  0.001  0.000  0.995 -0.001  0.000
  0.000  0.001 -0.001  0.384  0.000
  0.001  0.000  0.000  0.000  0.995
   spin  2
    eigenvalues: 
  0.980  0.980  0.997  0.997  0.997
    eigenvectors:
  0.750  0.250  0.000  0.000  0.000
  0.000  0.000  0.000  0.037  0.963
  0.000  0.000  0.500  0.482  0.018
  0.250  0.750  0.000  0.000  0.000
  0.000  0.000  0.500  0.482  0.018
    occupations:
  0.980  0.000  0.000  0.000  0.000
  0.000  0.997  0.000  0.000  0.000
  0.000  0.000  0.997  0.000  0.000
  0.000  0.000  0.000  0.980  0.000
  0.000  0.000  0.000  0.000  0.997
atomic mag. moment =    -1.198765
atom    7   Tr[ns(na)] (up, down, total) =   3.75377  4.95253  8.70630
   spin  1
    eigenvalues: 
  0.384  0.384  0.995  0.995  0.995
    eigenvectors:
  0.750  0.250  0.000  0.000  0.000
  0.000  0.000  0.168  0.500  0.332
  0.000  0.000  0.664  0.000  0.336
  0.250  0.750  0.000  0.000  0.000
  0.000  0.000  0.168  0.500  0.332
    occupations:
  0.384  0.001  0.000  0.000  0.001
  0.001  0.995  0.000  0.001  0.000
  0.000  0.000  0.995 -0.001  0.000
  0.000  0.001 -0.001  0.384  0.000
  0.001  0.000  0.000  0.000  0.995
   spin  2
    eigenvalues: 
  0.980  0.980  0.997  0.997  0.997
    eigenvectors:
  0.750  0.250  0.000  0.000  0.000
  0.000  0.000  0.500  0.482  0.018
  0.000  0.000  0.000  0.037  0.963
  0.250  0.750  0.000  0.000  0.000
  0.000  0.000  0.500  0.482  0.018
    occupations:
  0.980  0.000  0.000  0.000  0.000
  0.000  0.997  0.000  0.000  0.000
  0.000  0.000  0.997  0.000  0.000
  0.000  0.000  0.000  0.980  0.000
  0.000  0.000  0.000  0.000  0.997
atomic mag. moment =    -1.198765
atom    8   Tr[ns(na)] (up, down, total) =   3.75716  4.95566  8.71282
   spin  1
    eigenvalues: 
  0.386  0.386  0.995  0.995  0.995
    eigenvectors:
  0.894  0.106  0.000  0.000  0.000
  0.000  0.000  0.125  0.542  0.333
  0.000  0.000  0.212  0.454  0.333
  0.106  0.894  0.000  0.000  0.000
  0.000  0.000  0.663  0.004  0.333
    occupations:
  0.386  0.000  0.000  0.000  0.001
  0.000  0.995  0.000  0.001  0.000
  0.000  0.000  0.995 -0.001  0.000
  0.000  0.001 -0.001  0.386  0.000
  0.001  0.000  0.000  0.000  0.995
   spin  2
    eigenvalues: 
  0.982  0.982  0.997  0.997  0.997
    eigenvectors:
  0.660  0.340  0.000  0.000  0.000
  0.000  0.000  0.186  0.481  0.333
  0.000  0.000  0.148  0.519  0.333
  0.340  0.660  0.000  0.000  0.000
  0.000  0.000  0.666  0.001  0.333
    occupations:
  0.982  0.000  0.000  0.000  0.000
  0.000  0.997  0.000  0.000  0.000
  0.000  0.000  0.997  0.000  0.000
  0.000  0.000  0.000  0.982  0.000
  0.000  0.000  0.000  0.000  0.997
atomic mag. moment =    -1.198498
atom    9   Tr[ns(na)] (up, down, total) =   2.81113  2.81341  5.62455
   spin  1
    eigenvalues: 
  0.937  0.937  0.938
    eigenvectors:
  0.673  0.000  0.327
  0.164  0.500  0.336
  0.164  0.500  0.336
    occupations:
  0.937  0.000  0.000
  0.000  0.937  0.000
  0.000  0.000  0.937
   spin  2
    eigenvalues: 
  0.937  0.937  0.940
    eigenvectors:
  0.000  0.101  0.899
  0.500  0.450  0.050
  0.500  0.450  0.050
    occupations:
  0.939  0.000  0.000
  0.000  0.937  0.000
  0.000  0.000  0.937
atomic mag. moment =    -0.002281
atom   10   Tr[ns(na)] (up, down, total) =   2.81115  2.81119  5.62234
   spin  1
    eigenvalues: 
  0.937  0.937  0.938
    eigenvectors:
  0.418  0.249  0.333
  0.571  0.096  0.333
  0.012  0.655  0.333
    occupations:
  0.937  0.000  0.000
  0.000  0.937  0.000
  0.000  0.000  0.937
   spin  2
    eigenvalues: 
  0.937  0.937  0.938
    eigenvectors:
  0.358  0.309  0.333
  0.609  0.058  0.333
  0.033  0.633  0.333
    occupations:
  0.937  0.000  0.000
  0.000  0.937  0.000
  0.000  0.000  0.937
atomic mag. moment =    -0.000042
atom   11   Tr[ns(na)] (up, down, total) =   2.81113  2.81341  5.62455
   spin  1
    eigenvalues: 
  0.937  0.937  0.938
    eigenvectors:
  0.164  0.500  0.336
  0.164  0.500  0.336
  0.673  0.000  0.327
    occupations:
  0.937  0.000  0.000
  0.000  0.937  0.000
  0.000  0.000  0.937
   spin  2
    eigenvalues: 
  0.937  0.937  0.940
    eigenvectors:
  0.500  0.450  0.050
  0.500  0.450  0.050
  0.000  0.101  0.899
    occupations:
  0.937  0.000  0.000
  0.000  0.937  0.000
  0.000  0.000  0.939
atomic mag. moment =    -0.002281
atom   12   Tr[ns(na)] (up, down, total) =   2.81113  2.81341  5.62455
   spin  1
    eigenvalues: 
  0.937  0.937  0.938
    eigenvectors:
  0.164  0.500  0.336
  0.673  0.000  0.327
  0.164  0.500  0.336
    occupations:
  0.937  0.000  0.000
  0.000  0.937  0.000
  0.000  0.000  0.937
   spin  2
    eigenvalues: 
  0.937  0.937  0.940
    eigenvectors:
  0.500  0.450  0.050
  0.000  0.101  0.899
  0.500  0.450  0.050
    occupations:
  0.937  0.000  0.000
  0.000  0.939  0.000
  0.000  0.000  0.937
atomic mag. moment =    -0.002281
atom   13   Tr[ns(na)] (up, down, total) =   2.81113  2.81341  5.62455
   spin  1
    eigenvalues: 
  0.937  0.937  0.938
    eigenvectors:
  0.164  0.500  0.336
  0.164  0.500  0.336
  0.673  0.000  0.327
    occupations:
  0.937  0.000  0.000
  0.000  0.937  0.000
  0.000  0.000  0.937
   spin  2
    eigenvalues: 
  0.937  0.937  0.940
    eigenvectors:
  0.500  0.450  0.050
  0.500  0.450  0.050
  0.000  0.101  0.899
    occupations:
  0.937  0.000  0.000
  0.000  0.937  0.000
  0.000  0.000  0.939
atomic mag. moment =    -0.002281
atom   14   Tr[ns(na)] (up, down, total) =   2.81113  2.81341  5.62455
   spin  1
    eigenvalues: 
  0.937  0.937  0.938
    eigenvectors:
  0.164  0.500  0.336
  0.673  0.000  0.327
  0.164  0.500  0.336
    occupations:
  0.937  0.000  0.000
  0.000  0.937  0.000
  0.000  0.000  0.937
   spin  2
    eigenvalues: 
  0.937  0.937  0.940
    eigenvectors:
  0.500  0.450  0.050
  0.000  0.101  0.899
  0.500  0.450  0.050
    occupations:
  0.937  0.000  0.000
  0.000  0.939  0.000
  0.000  0.000  0.937
atomic mag. moment =    -0.002281
atom   15   Tr[ns(na)] (up, down, total) =   2.81115  2.81119  5.62234
   spin  1
    eigenvalues: 
  0.937  0.937  0.938
    eigenvectors:
  0.399  0.268  0.333
  0.584  0.083  0.333
  0.018  0.649  0.333
    occupations:
  0.937  0.000  0.000
  0.000  0.937  0.000
  0.000  0.000  0.937
   spin  2
    eigenvalues: 
  0.937  0.937  0.938
    eigenvectors:
  0.478  0.189  0.333
  0.521  0.145  0.333
  0.001  0.666  0.333
    occupations:
  0.937  0.000  0.000
  0.000  0.937  0.000
  0.000  0.000  0.937
atomic mag. moment =    -0.000042
atom   16   Tr[ns(na)] (up, down, total) =   2.81113  2.81341  5.62455
   spin  1
    eigenvalues: 
  0.937  0.937  0.938
    eigenvectors:
  0.673  0.000  0.327
  0.164  0.500  0.336
  0.164  0.500  0.336
    occupations:
  0.937  0.000  0.000
  0.000  0.937  0.000
  0.000  0.000  0.937
   spin  2
    eigenvalues: 
  0.937  0.937  0.940
    eigenvectors:
  0.000  0.101  0.899
  0.500  0.450  0.050
  0.500  0.450  0.050
    occupations:
  0.939  0.000  0.000
  0.000  0.937  0.000
  0.000  0.000  0.937
atomic mag. moment =    -0.002281
N of occupied +U levels = 114.6160538
 --- exit write_ns ---

     total cpu time spent up to now is       73.7 secs

     total energy              =    -941.91994922 Ry
     Harris-Foulkes estimate   =    -941.92030896 Ry
     estimated scf accuracy    <       0.00081718 Ry

     total magnetization       =     0.00 Bohr mag/cell
     absolute magnetization    =    12.31 Bohr mag/cell

     iteration #  2     ecut=    30.00 Ry     beta=0.30
     Davidson diagonalization with overlap
     ethr =  6.38E-07,  avg # of iterations =  2.2

     total cpu time spent up to now is      111.7 secs

     total energy              =    -941.92007214 Ry
     Harris-Foulkes estimate   =    -941.92034259 Ry
     estimated scf accuracy    <       0.00111582 Ry

     total magnetization       =     0.00 Bohr mag/cell
     absolute magnetization    =    12.30 Bohr mag/cell

     iteration #  3     ecut=    30.00 Ry     beta=0.30
     Davidson diagonalization with overlap
     ethr =  6.38E-07,  avg # of iterations =  1.9

     total cpu time spent up to now is      148.5 secs

     total energy              =    -941.92020699 Ry
     Harris-Foulkes estimate   =    -941.92020836 Ry
     estimated scf accuracy    <       0.00001488 Ry

     total magnetization       =     0.00 Bohr mag/cell
     absolute magnetization    =    12.30 Bohr mag/cell

     iteration #  4     ecut=    30.00 Ry     beta=0.30
     Davidson diagonalization with overlap
     ethr =  1.16E-08,  avg # of iterations =  2.0

     total cpu time spent up to now is      186.1 secs

     total energy              =    -941.92021000 Ry
     Harris-Foulkes estimate   =    -941.92020887 Ry
     estimated scf accuracy    <       0.00000447 Ry

     total magnetization       =     0.00 Bohr mag/cell
     absolute magnetization    =    12.30 Bohr mag/cell

     iteration #  5     ecut=    30.00 Ry     beta=0.30
     Davidson diagonalization with overlap
     ethr =  3.49E-09,  avg # of iterations =  1.1

     total cpu time spent up to now is      222.4 secs

     total energy              =    -941.92021083 Ry
     Harris-Foulkes estimate   =    -941.92021044 Ry
     estimated scf accuracy    <       0.00000258 Ry

     total magnetization       =     0.00 Bohr mag/cell
     absolute magnetization    =    12.30 Bohr mag/cell

     iteration #  6     ecut=    30.00 Ry     beta=0.30
     Davidson diagonalization with overlap
     ethr =  2.02E-09,  avg # of iterations =  1.5

     total cpu time spent up to now is      259.4 secs

     total energy              =    -941.92021124 Ry
     Harris-Foulkes estimate   =    -941.92021117 Ry
     estimated scf accuracy    <       0.00000016 Ry

     total magnetization       =     0.00 Bohr mag/cell
     absolute magnetization    =    12.31 Bohr mag/cell

     iteration #  7     ecut=    30.00 Ry     beta=0.30
     Davidson diagonalization with overlap
     ethr =  1.29E-10,  avg # of iterations =  1.8

     total cpu time spent up to now is      296.4 secs

     total energy              =    -941.92021128 Ry
     Harris-Foulkes estimate   =    -941.92021126 Ry
     estimated scf accuracy    <       0.00000003 Ry

     total magnetization       =     0.00 Bohr mag/cell
     absolute magnetization    =    12.31 Bohr mag/cell

     iteration #  8     ecut=    30.00 Ry     beta=0.30
     Davidson diagonalization with overlap
     ethr =  2.53E-11,  avg # of iterations =  1.8

     total cpu time spent up to now is      334.1 secs

     End of self-consistent calculation
 --- enter write_ns ---
 LDA+U parameters:
U( 1)     =  0.00000000
alpha( 1) =  0.15000000
U( 2)     =  0.00000000
alpha( 2) =  0.00000000
U( 3)     =  0.00000000
alpha( 3) =  0.00000000
U( 4)     =  0.00000000
alpha( 4) =  0.00000000
atom    1   Tr[ns(na)] (up, down, total) =   4.95245  3.73679  8.68924
   spin  1
    eigenvalues: 
  0.980  0.980  0.997  0.997  0.997
    eigenvectors:
  0.720  0.280  0.000  0.000  0.000
  0.000  0.000  0.123  0.544  0.333
  0.000  0.000  0.215  0.452  0.333
  0.280  0.720  0.000  0.000  0.000
  0.000  0.000  0.662  0.004  0.333
    occupations:
  0.980  0.000  0.000  0.000  0.000
  0.000  0.997  0.000  0.000  0.000
  0.000  0.000  0.997  0.000  0.000
  0.000  0.000  0.000  0.980  0.000
  0.000  0.000  0.000  0.000  0.997
   spin  2
    eigenvalues: 
  0.376  0.376  0.995  0.995  0.995
    eigenvectors:
  0.274  0.726  0.000  0.000  0.000
  0.000  0.000  0.105  0.561  0.333
  0.000  0.000  0.237  0.430  0.333
  0.726  0.274  0.000  0.000  0.000
  0.000  0.000  0.658  0.009  0.333
    occupations:
  0.376  0.000  0.000  0.000  0.001
  0.000  0.995  0.000  0.001  0.000
  0.000  0.000  0.995 -0.001  0.000
  0.000  0.001 -0.001  0.376  0.000
  0.001  0.000  0.000  0.000  0.995
atomic mag. moment =     1.215666
atom    2   Tr[ns(na)] (up, down, total) =   4.95239  3.75385  8.70624
   spin  1
    eigenvalues: 
  0.980  0.980  0.997  0.997  0.997
    eigenvectors:
  0.750  0.250  0.000  0.000  0.000
  0.000  0.000  0.500  0.190  0.310
  0.000  0.000  0.000  0.619  0.381
  0.250  0.750  0.000  0.000  0.000
  0.000  0.000  0.500  0.190  0.310
    occupations:
  0.980  0.000  0.000  0.000  0.000
  0.000  0.997  0.000  0.000  0.000
  0.000  0.000  0.997  0.000  0.000
  0.000  0.000  0.000  0.980  0.000
  0.000  0.000  0.000  0.000  0.997
   spin  2
    eigenvalues: 
  0.384  0.384  0.995  0.995  0.996
    eigenvectors:
  0.750  0.250  0.000  0.000  0.000
  0.000  0.000  0.500  0.316  0.184
  0.000  0.000  0.000  0.369  0.631
  0.250  0.750  0.000  0.000  0.000
  0.000  0.000  0.500  0.316  0.184
    occupations:
  0.384  0.001  0.001  0.000  0.001
  0.001  0.995  0.000  0.001  0.000
  0.001  0.000  0.995 -0.001  0.000
  0.000  0.001 -0.001  0.384  0.000
  0.001  0.000  0.000  0.000  0.995
atomic mag. moment =     1.198536
atom    3   Tr[ns(na)] (up, down, total) =   4.95239  3.75385  8.70624
   spin  1
    eigenvalues: 
  0.980  0.980  0.997  0.997  0.997
    eigenvectors:
  0.750  0.250  0.000  0.000  0.000
  0.000  0.000  0.000  0.619  0.381
  0.000  0.000  0.500  0.190  0.310
  0.250  0.750  0.000  0.000  0.000
  0.000  0.000  0.500  0.190  0.310
    occupations:
  0.980  0.000  0.000  0.000  0.000
  0.000  0.997  0.000  0.000  0.000
  0.000  0.000  0.997  0.000  0.000
  0.000  0.000  0.000  0.980  0.000
  0.000  0.000  0.000  0.000  0.997
   spin  2
    eigenvalues: 
  0.384  0.384  0.995  0.995  0.996
    eigenvectors:
  0.750  0.250  0.000  0.000  0.000
  0.000  0.000  0.000  0.369  0.631
  0.000  0.000  0.500  0.316  0.184
  0.250  0.750  0.000  0.000  0.000
  0.000  0.000  0.500  0.316  0.184
    occupations:
  0.384  0.001  0.001  0.000  0.001
  0.001  0.995  0.000  0.001  0.000
  0.001  0.000  0.995 -0.001  0.000
  0.000  0.001 -0.001  0.384  0.000
  0.001  0.000  0.000  0.000  0.995
atomic mag. moment =     1.198536
atom    4   Tr[ns(na)] (up, down, total) =   4.95239  3.75385  8.70624
   spin  1
    eigenvalues: 
  0.980  0.980  0.997  0.997  0.997
    eigenvectors:
  0.000  1.000  0.000  0.000  0.000
  0.000  0.000  0.500  0.190  0.310
  0.000  0.000  0.500  0.190  0.310
  1.000  0.000  0.000  0.000  0.000
  0.000  0.000  0.000  0.619  0.381
    occupations:
  0.980  0.000  0.000  0.000  0.000
  0.000  0.997  0.000  0.000  0.000
  0.000  0.000  0.997  0.000  0.000
  0.000  0.000  0.000  0.980  0.000
  0.000  0.000  0.000  0.000  0.997
   spin  2
    eigenvalues: 
  0.384  0.384  0.995  0.995  0.996
    eigenvectors:
  0.000  1.000  0.000  0.000  0.000
  0.000  0.000  0.500  0.316  0.184
  0.000  0.000  0.500  0.316  0.184
  1.000  0.000  0.000  0.000  0.000
  0.000  0.000  0.000  0.369  0.631
    occupations:
  0.384  0.001  0.001  0.000  0.001
  0.001  0.995  0.000  0.001  0.000
  0.001  0.000  0.995 -0.001  0.000
  0.000  0.001 -0.001  0.384  0.000
  0.001  0.000  0.000  0.000  0.995
atomic mag. moment =     1.198536
atom    5   Tr[ns(na)] (up, down, total) =   3.75380  4.95243  8.70624
   spin  1
    eigenvalues: 
  0.384  0.384  0.995  0.995  0.995
    eigenvectors:
  1.000  0.000  0.000  0.000  0.000
  0.000  0.000  0.500  0.180  0.320
  0.000  0.000  0.500  0.180  0.320
  0.000  1.000  0.000  0.000  0.000
  0.000  0.000  0.000  0.640  0.360
    occupations:
  0.384  0.001  0.001  0.000  0.001
  0.001  0.995  0.000  0.001  0.000
  0.001  0.000  0.995 -0.001  0.000
  0.000  0.001 -0.001  0.384  0.000
  0.001  0.000  0.000  0.000  0.995
   spin  2
    eigenvalues: 
  0.980  0.980  0.997  0.997  0.997
    eigenvectors:
  0.000  1.000  0.000  0.000  0.000
  0.000  0.000  0.500  0.394  0.106
  0.000  0.000  0.500  0.394  0.106
  1.000  0.000  0.000  0.000  0.000
  0.000  0.000  0.000  0.213  0.787
    occupations:
  0.980  0.000  0.000  0.000  0.000
  0.000  0.997  0.000  0.000  0.000
  0.000  0.000  0.997  0.000  0.000
  0.000  0.000  0.000  0.980  0.000
  0.000  0.000  0.000  0.000  0.997
atomic mag. moment =    -1.198632
atom    6   Tr[ns(na)] (up, down, total) =   3.75380  4.95243  8.70624
   spin  1
    eigenvalues: 
  0.384  0.384  0.995  0.995  0.995
    eigenvectors:
  0.250  0.750  0.000  0.000  0.000
  0.000  0.000  0.000  0.640  0.360
  0.000  0.000  0.500  0.180  0.320
  0.750  0.250  0.000  0.000  0.000
  0.000  0.000  0.500  0.180  0.320
    occupations:
  0.384  0.001  0.001  0.000  0.001
  0.001  0.995  0.000  0.001  0.000
  0.001  0.000  0.995 -0.001  0.000
  0.000  0.001 -0.001  0.384  0.000
  0.001  0.000  0.000  0.000  0.995
   spin  2
    eigenvalues: 
  0.980  0.980  0.997  0.997  0.997
    eigenvectors:
  0.750  0.250  0.000  0.000  0.000
  0.000  0.000  0.000  0.213  0.787
  0.000  0.000  0.500  0.394  0.106
  0.250  0.750  0.000  0.000  0.000
  0.000  0.000  0.500  0.394  0.106
    occupations:
  0.980  0.000  0.000  0.000  0.000
  0.000  0.997  0.000  0.000  0.000
  0.000  0.000  0.997  0.000  0.000
  0.000  0.000  0.000  0.980  0.000
  0.000  0.000  0.000  0.000  0.997
atomic mag. moment =    -1.198632
atom    7   Tr[ns(na)] (up, down, total) =   3.75380  4.95243  8.70624
   spin  1
    eigenvalues: 
  0.384  0.384  0.995  0.995  0.995
    eigenvectors:
  0.250  0.750  0.000  0.000  0.000
  0.000  0.000  0.500  0.180  0.320
  0.000  0.000  0.000  0.640  0.360
  0.750  0.250  0.000  0.000  0.000
  0.000  0.000  0.500  0.180  0.320
    occupations:
  0.384  0.001  0.001  0.000  0.001
  0.001  0.995  0.000  0.001  0.000
  0.001  0.000  0.995 -0.001  0.000
  0.000  0.001 -0.001  0.384  0.000
  0.001  0.000  0.000  0.000  0.995
   spin  2
    eigenvalues: 
  0.980  0.980  0.997  0.997  0.997
    eigenvectors:
  0.750  0.250  0.000  0.000  0.000
  0.000  0.000  0.500  0.394  0.106
  0.000  0.000  0.000  0.213  0.787
  0.250  0.750  0.000  0.000  0.000
  0.000  0.000  0.500  0.394  0.106
    occupations:
  0.980  0.000  0.000  0.000  0.000
  0.000  0.997  0.000  0.000  0.000
  0.000  0.000  0.997  0.000  0.000
  0.000  0.000  0.000  0.980  0.000
  0.000  0.000  0.000  0.000  0.997
atomic mag. moment =    -1.198632
atom    8   Tr[ns(na)] (up, down, total) =   3.75099  4.95396  8.70495
   spin  1
    eigenvalues: 
  0.383  0.383  0.995  0.995  0.995
    eigenvectors:
  0.158  0.842  0.000  0.000  0.000
  0.000  0.000  0.129  0.537  0.333
  0.000  0.000  0.207  0.460  0.333
  0.842  0.158  0.000  0.000  0.000
  0.000  0.000  0.664  0.003  0.333
    occupations:
  0.383  0.000  0.000  0.000  0.001
  0.000  0.995  0.000  0.001  0.000
  0.000  0.000  0.995 -0.001  0.000
  0.000  0.001 -0.001  0.383  0.000
  0.001  0.000  0.000  0.000  0.995
   spin  2
    eigenvalues: 
  0.981  0.981  0.997  0.997  0.997
    eigenvectors:
  0.249  0.751  0.000  0.000  0.000
  0.000  0.000  0.080  0.587  0.333
  0.000  0.000  0.273  0.394  0.333
  0.751  0.249  0.000  0.000  0.000
  0.000  0.000  0.647  0.019  0.333
    occupations:
  0.981  0.000  0.000  0.000  0.000
  0.000  0.997  0.000  0.000  0.000
  0.000  0.000  0.997  0.000  0.000
  0.000  0.000  0.000  0.981  0.000
  0.000  0.000  0.000  0.000  0.997
atomic mag. moment =    -1.202968
atom    9   Tr[ns(na)] (up, down, total) =   2.81106  2.81229  5.62334
   spin  1
    eigenvalues: 
  0.937  0.937  0.938
    eigenvectors:
  0.000  0.635  0.365
  0.500  0.183  0.317
  0.500  0.183  0.317
    occupations:
  0.937  0.000  0.000
  0.000  0.937  0.000
  0.000  0.000  0.937
   spin  2
    eigenvalues: 
  0.937  0.937  0.939
    eigenvectors:
  0.000  0.264  0.736
  0.500  0.368  0.132
  0.500  0.368  0.132
    occupations:
  0.938  0.000  0.000
  0.000  0.937  0.000
  0.000  0.000  0.937
atomic mag. moment =    -0.001229
atom   10   Tr[ns(na)] (up, down, total) =   2.81112  2.81114  5.62227
   spin  1
    eigenvalues: 
  0.937  0.937  0.938
    eigenvectors:
  0.410  0.257  0.333
  0.576  0.091  0.333
  0.014  0.653  0.333
    occupations:
  0.937  0.000  0.000
  0.000  0.937  0.000
  0.000  0.000  0.937
   spin  2
    eigenvalues: 
  0.937  0.937  0.938
    eigenvectors:
  0.405  0.261  0.333
  0.579  0.087  0.333
  0.015  0.651  0.333
    occupations:
  0.937  0.000  0.000
  0.000  0.937  0.000
  0.000  0.000  0.937
atomic mag. moment =    -0.000020
atom   11   Tr[ns(na)] (up, down, total) =   2.81106  2.81229  5.62334
   spin  1
    eigenvalues: 
  0.937  0.937  0.938
    eigenvectors:
  0.500  0.183  0.317
  0.500  0.183  0.317
  0.000  0.635  0.365
    occupations:
  0.937  0.000  0.000
  0.000  0.937  0.000
  0.000  0.000  0.937
   spin  2
    eigenvalues: 
  0.937  0.937  0.939
    eigenvectors:
  0.500  0.368  0.132
  0.500  0.368  0.132
  0.000  0.264  0.736
    occupations:
  0.937  0.000  0.000
  0.000  0.937  0.000
  0.000  0.000  0.938
atomic mag. moment =    -0.001229
atom   12   Tr[ns(na)] (up, down, total) =   2.81106  2.81229  5.62334
   spin  1
    eigenvalues: 
  0.937  0.937  0.938
    eigenvectors:
  0.500  0.183  0.317
  0.000  0.635  0.365
  0.500  0.183  0.317
    occupations:
  0.937  0.000  0.000
  0.000  0.937  0.000
  0.000  0.000  0.937
   spin  2
    eigenvalues: 
  0.937  0.937  0.939
    eigenvectors:
  0.500  0.368  0.132
  0.000  0.264  0.736
  0.500  0.368  0.132
    occupations:
  0.937  0.000  0.000
  0.000  0.938  0.000
  0.000  0.000  0.937
atomic mag. moment =    -0.001229
atom   13   Tr[ns(na)] (up, down, total) =   2.81106  2.81229  5.62334
   spin  1
    eigenvalues: 
  0.937  0.937  0.938
    eigenvectors:
  0.500  0.183  0.317
  0.500  0.183  0.317
  0.000  0.635  0.365
    occupations:
  0.937  0.000  0.000
  0.000  0.937  0.000
  0.000  0.000  0.937
   spin  2
    eigenvalues: 
  0.937  0.937  0.939
    eigenvectors:
  0.500  0.368  0.132
  0.500  0.368  0.132
  0.000  0.264  0.736
    occupations:
  0.937  0.000  0.000
  0.000  0.937  0.000
  0.000  0.000  0.938
atomic mag. moment =    -0.001229
atom   14   Tr[ns(na)] (up, down, total) =   2.81106  2.81229  5.62334
   spin  1
    eigenvalues: 
  0.937  0.937  0.938
    eigenvectors:
  0.500  0.183  0.317
  0.000  0.635  0.365
  0.500  0.183  0.317
    occupations:
  0.937  0.000  0.000
  0.000  0.937  0.000
  0.000  0.000  0.937
   spin  2
    eigenvalues: 
  0.937  0.937  0.939
    eigenvectors:
  0.500  0.368  0.132
  0.000  0.264  0.736
  0.500  0.368  0.132
    occupations:
  0.937  0.000  0.000
  0.000  0.938  0.000
  0.000  0.000  0.937
atomic mag. moment =    -0.001229
atom   15   Tr[ns(na)] (up, down, total) =   2.81112  2.81114  5.62227
   spin  1
    eigenvalues: 
  0.937  0.937  0.938
    eigenvectors:
  0.414  0.252  0.333
  0.573  0.094  0.333
  0.013  0.654  0.333
    occupations:
  0.937  0.000  0.000
  0.000  0.937  0.000
  0.000  0.000  0.937
   spin  2
    eigenvalues: 
  0.937  0.937  0.938
    eigenvectors:
  0.470  0.196  0.333
  0.528  0.139  0.333
  0.002  0.665  0.333
    occupations:
  0.937  0.000  0.000
  0.000  0.937  0.000
  0.000  0.000  0.937
atomic mag. moment =    -0.000020
atom   16   Tr[ns(na)] (up, down, total) =   2.81106  2.81229  5.62334
   spin  1
    eigenvalues: 
  0.937  0.937  0.938
    eigenvectors:
  0.000  0.635  0.365
  0.500  0.183  0.317
  0.500  0.183  0.317
    occupations:
  0.937  0.000  0.000
  0.000  0.937  0.000
  0.000  0.000  0.937
   spin  2
    eigenvalues: 
  0.937  0.937  0.939
    eigenvectors:
  0.000  0.264  0.736
  0.500  0.368  0.132
  0.500  0.368  0.132
    occupations:
  0.938  0.000  0.000
  0.000  0.937  0.000
  0.000  0.000  0.937
atomic mag. moment =    -0.001229
N of occupied +U levels = 114.6162325
 --- exit write_ns ---

 ------ SPIN UP ------------


          k = 0.0000 0.0000 0.0000 (  2733 PWs)   bands (ev):

    -8.0736  -6.6828  -6.6812  -6.6809  -6.6809  -6.6139  -6.6038  -6.6038
     4.0288   4.0418   4.0418   4.0458   5.3314   5.3316   5.3316   6.5311
     6.5311   6.5367   6.5466   6.5466   6.5701   6.5835   6.5835   7.9574
     7.9574   7.9582   7.9614   7.9622   7.9622   8.8492   8.8492   8.8508
     9.2610   9.2610   9.2683   9.5730   9.5730   9.7084   9.8836   9.8836
     9.9479   9.9532   9.9532  10.2350  10.2350  10.2426  10.4903  10.4964
    10.4964  10.6080  10.6080  10.6093  10.9173  10.9173  11.0448  11.0466
    11.0466  11.1852  11.2682  11.2698  11.2698  11.3885  11.3885  11.3890
    13.5499  13.5499  13.6089  13.6097  13.6097  13.6925  13.6942  13.6942
    13.7609  17.7975  17.7997  17.7997  17.8024

          k =-0.1250 0.1250 0.1250 (  2743 PWs)   bands (ev):

    -7.8979  -6.9206  -6.6759  -6.6738  -6.6732  -6.6273  -6.6186  -6.6183
     4.3504   4.3588   4.3625   4.6131   5.3474   5.3481   5.3497   6.4426
     6.4533   6.4536   6.6411   6.6811   6.6868   6.7079   6.7508   7.2015
     7.2031   7.2401   7.6919   7.6920   7.7048   7.9728   8.4067   8.4140
     9.2955   9.3499   9.3530   9.6912   9.8362   9.9725  10.0500  10.0536
    10.1204  10.2248  10.2313  10.2582  10.3780  10.5249  10.5463  10.5488
    10.5579  10.6424  10.6922  10.6965  10.9029  10.9989  11.1201  11.1205
    11.1235  11.1834  11.2637  11.2639  11.2855  11.3187  11.3470  11.3486
    13.2176  13.2840  13.2842  13.2977  13.3881  13.4257  13.4261  13.4703
    14.7686  17.5952  18.6778  18.6792  18.6799

          k = 0.2500-0.2500-0.2500 (  2764 PWs)   bands (ev):

    -7.4404  -7.4397  -6.6589  -6.6544  -6.6529  -6.6497  -6.6492  -6.6432
     5.0535   5.0638   5.0684   5.0719   5.0755   5.0818   6.0970   6.1029
     6.3273   6.3413   6.3922   6.4050   6.4673   6.4791   6.8587   6.8743
     7.0173   7.0267   7.3164   7.3200   7.4903   7.4954   7.6416   7.6449
     9.6373   9.6582   9.8221   9.8392   9.8924   9.9043  10.0275  10.0431
    10.1638  10.1777  10.2262  10.2372  10.5380  10.5417  10.6467  10.6479
    10.6638  10.6650  10.8747  10.8762  10.9685  10.9692  11.2483  11.2493
    11.2560  11.2584  11.3014  11.3030  11.3339  11.3362  11.4359  11.4379
    13.0421  13.0448  13.0487  13.0513  13.0565  13.0607  13.0672  13.0710
    16.4833  16.4864  19.6460  19.6547  19.7123

          k = 0.0000 0.0000 0.2500 (  2706 PWs)   bands (ev):

    -7.8445  -6.7965  -6.7469  -6.7455  -6.7454  -6.7428  -6.5585  -6.5506
     4.4920   4.5001   4.5025   4.5068   5.2364   5.5237   5.5238   6.5336
     6.5398   6.5618   6.5911   6.6019   6.6253   6.6428   6.6885   7.0680
     7.0683   7.1714   7.1716   7.4658   7.9746   7.9797   8.6573   8.6661
     8.9716   9.5480   9.6394   9.6426   9.8204   9.9856  10.0634  10.0659
    10.1042  10.1201  10.1946  10.2840  10.2886  10.4046  10.4161  10.5509
    10.5524  10.6172  10.6211  10.6662  10.9155  11.0126  11.0135  11.0544
    11.0609  11.1735  11.2461  11.2975  11.2990  11.3501  11.3525  11.3829
    12.8814  13.0419  13.0433  13.0477  13.5272  13.5707  13.6475  13.6495
    15.2157  18.5676  18.5684  18.5684  18.5715

          k = 0.3750-0.3750-0.1250 (  2734 PWs)   bands (ev):

    -7.4944  -7.1636  -6.9565  -6.7613  -6.7609  -6.5855  -6.5482  -6.5405
     4.9684   4.9731   4.9847   5.3100   5.4313   5.5028   5.5237   6.1814
     6.2156   6.2435   6.2725   6.5924   6.6045   6.7520   6.7570   6.8686
     6.8963   6.9278   7.0005   7.3626   7.3827   7.7277   7.7639   8.0197
     9.4687   9.6637   9.8338   9.9052   9.9631   9.9806  10.0453  10.1471
    10.1505  10.1751  10.2199  10.2961  10.3197  10.3287  10.4833  10.5172
    10.7369  10.7436  10.7462  10.7599  10.8820  10.9097  11.0433  11.0815
    11.1710  11.1984  11.2287  11.2604  11.3353  11.3391  11.3571  11.4136
    12.7423  12.7863  12.8381  12.9346  13.2392  13.2624  13.3681  13.4371
    16.6967  17.6042  18.6721  19.3644  19.3662

          k = 0.2500-0.2500 0.0000 (  2742 PWs)   bands (ev):

    -7.6327  -7.0090  -7.0072  -6.7099  -6.7075  -6.5952  -6.5900  -6.5344
     4.7753   4.7843   5.0733   5.0755   5.2659   5.2666   5.7042   5.9704
     6.2939   6.3109   6.5354   6.7265   6.7522   6.7582   6.9218   6.9251
     6.9354   7.1617   7.1697   7.1934   7.4539   7.4544   7.6376   8.1309
     9.6672   9.6739   9.8025   9.8592   9.9086   9.9233  10.0508  10.1193
    10.1446  10.2313  10.2359  10.2377  10.2447  10.3651  10.3705  10.5214
    10.7226  10.7556  10.7558  10.8319  10.9071  11.0996  11.0997  11.1178
    11.2119  11.2128  11.2355  11.2467  11.2819  11.3485  11.4086  11.4094
    13.0457  13.0509  13.0602  13.0640  13.1173  13.1545  13.1564  13.2874
    16.0098  18.0615  18.0649  19.3760  19.3818

          k = 0.0000 0.0000-0.5000 (  2762 PWs)   bands (ev):

    -7.3035  -7.2998  -6.8093  -6.8083  -6.8081  -6.8027  -6.5057  -6.4965
     5.0221   5.0291   5.0306   5.0393   5.7718   5.7755   6.1012   6.1072
     6.1099   6.1149   6.4067   6.4136   6.6541   6.6635   6.6863   6.7061
     6.7248   6.7313   6.7365   6.7415   8.1526   8.1580   8.1639   8.1679
     9.2526   9.2768   9.9535   9.9598  10.0340  10.0396  10.0491  10.0521
    10.0543  10.0666  10.1731  10.1862  10.3533  10.3677  10.4996  10.5088
    10.5223  10.5252  10.5859  10.5966  10.9148  10.9169  11.0080  11.0112
    11.1514  11.1535  11.2296  11.2319  11.3391  11.3414  11.3439  11.3456
    12.4644  12.4667  12.7226  12.7246  13.5206  13.5220  13.6205  13.6225
    17.6669  17.6715  19.2534  19.2539  19.2541

          k = 0.0000 0.2500-0.5000 (  2740 PWs)   bands (ev):

    -7.1443  -7.1439  -7.1437  -7.1380  -6.5720  -6.5687  -6.5625  -6.5623
     5.2882   5.2886   5.2902   5.3340   5.3889   5.5428   5.5508   5.6570
     6.2318   6.2572   6.2639   6.2889   6.6254   6.6287   6.6462   6.7683
     6.9122   7.2742   7.2756   7.4715   7.4844   7.5112   7.5150   7.5618
     9.7233   9.7501   9.7530   9.8184   9.9928  10.0430  10.0444  10.0813
    10.1262  10.2785  10.2929  10.3040  10.3516  10.3534  10.4046  10.4709
    10.6225  10.6683  10.6699  10.6956  10.9517  10.9520  10.9724  10.9943
    11.1772  11.1885  11.1902  11.2834  11.2989  11.3030  11.3694  11.3697
    12.7778  12.8918  12.8935  13.0064  13.1586  13.2016  13.2042  13.2477
    18.0176  18.0376  18.0403  18.0605  20.8576

          k = 0.1250 0.1250 0.1250 (  2743 PWs)   bands (ev):

    -7.8980  -6.9209  -6.6768  -6.6735  -6.6735  -6.6263  -6.6183  -6.6183
     4.3483   4.3581   4.3581   4.6182   5.3462   5.3469   5.3469   6.4845
     6.4909   6.4909   6.6257   6.6367   6.6367   6.7092   6.7092   7.2160
     7.2193   7.2193   7.7094   7.7094   7.7094   7.9790   8.4574   8.4574
     9.2754   9.2754   9.2818   9.6324   9.6324  10.0133  10.0691  10.0769
    10.0769  10.2820  10.2820  10.2865  10.6105  10.6105  10.6118  10.6266
    10.6266  10.7279  10.7301  10.7301  10.9194  10.9194  10.9451  10.9470
    10.9470  11.0380  11.2604  11.2620  11.2620  11.3986  11.3986  11.3997
    13.3383  13.3383  13.3540  13.3551  13.3551  13.3610  13.3635  13.3635
    14.7689  17.5968  18.6763  18.6763  18.6765

          k =-0.2500-0.2500-0.2500 (  2764 PWs)   bands (ev):

    -7.4449  -7.4355  -6.6653  -6.6551  -6.6551  -6.6448  -6.6437  -6.6437
     5.0137   5.0231   5.0231   5.1138   5.1151   5.1151   6.0885   6.1218
     6.2663   6.2759   6.2759   6.6934   6.6934   6.6938   6.7539   6.7658
     6.7658   6.9933   6.9933   7.4506   7.4506   7.4506   7.8680   7.8680
     9.5037   9.5037   9.5135   9.6886   9.6886  10.1250  10.1285  10.1342
    10.1342  10.4536  10.4536  10.4541  10.5170  10.5172  10.5172  10.7314
    10.7314  10.8488  10.8488  10.8489  10.8753  11.0603  11.0603  11.0612
    11.2487  11.2503  11.2503  11.3040  11.3040  11.4063  11.4063  11.4076
    13.0434  13.0454  13.0454  13.0615  13.0615  13.0748  13.0778  13.0778
    16.4106  16.5634  19.6199  19.6356  19.6356

          k =-0.3750-0.1250-0.3750 (  2734 PWs)   bands (ev):

    -7.4945  -7.1637  -6.9565  -6.7612  -6.7609  -6.5855  -6.5480  -6.5405
     4.9687   4.9777   4.9815   5.2895   5.4445   5.5013   5.5060   6.2262
     6.2357   6.2380   6.2691   6.6610   6.6743   6.6779   6.7001   6.7067
     6.8404   7.0835   7.0878   7.2758   7.3868   7.7609   7.7653   8.0559
     9.3683   9.5581   9.7678   9.7782   9.7977  10.0685  10.1017  10.1080
    10.2925  10.2958  10.4260  10.4319  10.4480  10.5580  10.5623  10.5690
    10.5742  10.6555  10.6563  10.6565  10.8470  10.8846  10.8853  10.9642
    11.0752  11.2468  11.2786  11.3055  11.3056  11.3639  11.3651  11.4271
    12.6975  12.8436  12.8874  12.8901  13.2849  13.3393  13.3460  13.3489
    16.6960  17.6071  18.6716  19.3611  19.3622

          k = 0.3750-0.1250 0.3750 (  2734 PWs)   bands (ev):

    -7.4943  -7.1637  -6.9566  -6.7611  -6.7608  -6.5857  -6.5481  -6.5406
     4.9744   4.9784   4.9832   5.2507   5.5010   5.5079   5.5105   6.1282
     6.2360   6.2368   6.3512   6.5752   6.5785   6.6706   6.8257   6.8294
     6.8422   7.0445   7.0483   7.1669   7.5074   7.7517   7.7770   8.0054
     9.3948   9.5717   9.9473   9.9634  10.0268  10.0303  10.0523  10.0534
    10.0707  10.1869  10.2209  10.2257  10.4021  10.4487  10.5019  10.5051
    10.6645  10.7016  10.7048  10.7186  10.9008  10.9535  11.0993  11.1002
    11.2192  11.2212  11.2364  11.2735  11.2809  11.2827  11.3515  11.3534
    12.7447  12.8036  12.8848  12.8872  13.2585  13.3453  13.3476  13.3585
    16.6962  17.6053  18.6741  19.3620  19.3629

          k =-0.2500 0.0000-0.2500 (  2742 PWs)   bands (ev):

    -7.6328  -7.0091  -7.0072  -6.7102  -6.7073  -6.5947  -6.5900  -6.5345
     4.7738   4.7815   5.0815   5.0887   5.2454   5.2478   5.7056   5.9743
     6.3217   6.3257   6.5952   6.6793   6.6909   6.8004   6.8648   6.9333
     7.0191   7.1643   7.1715   7.2072   7.2104   7.4900   7.8376   8.1289
     9.5699   9.6229   9.6448   9.6560   9.7875  10.0794  10.0861  10.1408
    10.2495  10.2522  10.3155  10.3936  10.4541  10.5632  10.5659  10.5685
    10.6360  10.6686  10.6741  10.7471  10.7699  10.8246  11.0539  11.0540
    11.1089  11.2744  11.2752  11.3438  11.3734  11.3746  11.3892  11.4099
    13.0483  13.0512  13.0573  13.0617  13.0677  13.2096  13.2111  13.2403
    16.0110  18.0615  18.0653  19.3706  19.3773

 ------ SPIN DOWN ----------


          k = 0.0000 0.0000 0.0000 (  2733 PWs)   bands (ev):

    -8.0754  -6.6842  -6.6838  -6.6838  -6.6828  -6.6147  -6.6072  -6.6072
     4.0264   4.0405   4.0405   4.0445   5.3301   5.3301   5.3302   6.5292
     6.5292   6.5359   6.5416   6.5416   6.5691   6.5735   6.5735   7.9551
     7.9551   7.9569   7.9588   7.9606   7.9606   8.8439   8.8449   8.8449
     9.2588   9.2588   9.2659   9.5654   9.5654   9.7033   9.8887   9.8887
     9.9478   9.9520   9.9520  10.2358  10.2358  10.2380  10.4902  10.4943
    10.4943  10.6071  10.6071  10.6077  10.9257  10.9257  11.0509  11.0535
    11.0535  11.1924  11.2680  11.2824  11.2824  11.3963  11.3963  11.4018
    13.5537  13.5537  13.6084  13.6163  13.6163  13.6925  13.7046  13.7046
    13.7605  17.7971  17.7993  17.7993  17.8024

          k =-0.1250 0.1250 0.1250 (  2743 PWs)   bands (ev):

    -7.8998  -6.9227  -6.6768  -6.6768  -6.6765  -6.6280  -6.6218  -6.6212
     4.3481   4.3575   4.3612   4.6114   5.3458   5.3461   5.3482   6.4395
     6.4478   6.4482   6.6365   6.6797   6.6811   6.7000   6.7432   7.1987
     7.2023   7.2415   7.6908   7.6936   7.7051   7.9705   8.4064   8.4149
     9.2885   9.3468   9.3470   9.6833   9.8313   9.9666  10.0469  10.0485
    10.1158  10.2238  10.2266  10.2551  10.3807  10.5288  10.5469  10.5472
    10.5586  10.6442  10.6926  10.6949  10.9094  11.0047  11.1204  11.1254
    11.1358  11.1909  11.2688  11.2715  11.2969  11.3296  11.3506  11.3641
    13.2229  13.2873  13.2899  13.3052  13.3925  13.4311  13.4361  13.4788
    14.7679  17.5948  18.6771  18.6785  18.6800

          k = 0.2500-0.2500-0.2500 (  2764 PWs)   bands (ev):

    -7.4424  -7.4417  -6.6610  -6.6592  -6.6567  -6.6519  -6.6495  -6.6441
     5.0535   5.0539   5.0667   5.0731   5.0742   5.0832   6.0953   6.1008
     6.3248   6.3308   6.3906   6.3963   6.4657   6.4734   6.8571   6.8602
     7.0161   7.0230   7.3154   7.3266   7.4884   7.5008   7.6399   7.6523
     9.6368   9.6387   9.8216   9.8275   9.8914   9.9017  10.0271  10.0319
    10.1633  10.1674  10.2259  10.2265  10.5367  10.5416  10.6459  10.6568
    10.6632  10.6884  10.8731  10.8789  10.9668  10.9735  11.2472  11.2560
    11.2581  11.2706  11.3008  11.3183  11.3339  11.3533  11.4355  11.4472
    13.0419  13.0472  13.0484  13.0553  13.0564  13.0668  13.0909  13.0989
    16.4828  16.4855  19.6550  19.6565  19.7136

          k = 0.0000 0.0000 0.2500 (  2706 PWs)   bands (ev):

    -7.8464  -6.7995  -6.7484  -6.7484  -6.7470  -6.7452  -6.5600  -6.5540
     4.4890   4.4988   4.5013   4.5053   5.2341   5.5223   5.5223   6.5306
     6.5320   6.5522   6.5895   6.5980   6.6240   6.6311   6.6862   7.0658
     7.0661   7.1712   7.1782   7.4677   7.9726   7.9777   8.6542   8.6636
     8.9663   9.5411   9.6332   9.6341   9.8210   9.9858  10.0601  10.0608
    10.0999  10.1169  10.1907  10.2850  10.2857  10.4027  10.4172  10.5492
    10.5544  10.6185  10.6202  10.6636  10.9254  11.0149  11.0235  11.0553
    11.0716  11.1818  11.2525  11.3015  11.3140  11.3504  11.3688  11.3924
    12.8880  13.0418  13.0436  13.0730  13.5310  13.5751  13.6475  13.6625
    15.2148  18.5667  18.5680  18.5681  18.5712

          k = 0.3750-0.3750-0.1250 (  2734 PWs)   bands (ev):

    -7.4964  -7.1657  -6.9589  -6.7642  -6.7623  -6.5880  -6.5495  -6.5438
     4.9646   4.9713   4.9823   5.3096   5.4259   5.5013   5.5247   6.1789
     6.2131   6.2386   6.2675   6.5913   6.5966   6.7500   6.7519   6.8646
     6.8944   6.9282   6.9992   7.3625   7.3807   7.7245   7.7648   8.0205
     9.4642   9.6576   9.8257   9.8996   9.9606   9.9730  10.0411  10.1417
    10.1457  10.1732  10.2153  10.2934  10.3235  10.3268  10.4827  10.5153
    10.7363  10.7417  10.7508  10.7572  10.8866  10.9189  11.0521  11.0867
    11.1769  11.2038  11.2383  11.2695  11.3422  11.3470  11.3656  11.4223
    12.7482  12.7959  12.8484  12.9461  13.2429  13.2695  13.3748  13.4450
    16.6957  17.6034  18.6714  19.3631  19.3650

          k = 0.2500-0.2500 0.0000 (  2742 PWs)   bands (ev):

    -7.6347  -7.0105  -7.0101  -6.7114  -6.7106  -6.5967  -6.5932  -6.5369
     4.7731   4.7828   5.0672   5.0741   5.2651   5.2676   5.7024   5.9679
     6.2889   6.3057   6.5299   6.7242   6.7467   6.7511   6.9149   6.9185
     6.9364   7.1597   7.1665   7.1946   7.4548   7.4626   7.6376   8.1286
     9.6627   9.6650   9.7946   9.8555   9.9098   9.9139  10.0521  10.1162
    10.1372  10.2305  10.2322  10.2324  10.2363  10.3648  10.3713  10.5210
    10.7275  10.7567  10.7595  10.8312  10.9163  11.1008  11.1076  11.1258
    11.2141  11.2210  11.2456  11.2603  11.2845  11.3561  11.4124  11.4198
    13.0463  13.0529  13.0604  13.0909  13.1214  13.1563  13.1721  13.2962
    16.0089  18.0606  18.0643  19.3752  19.3812

          k = 0.0000 0.0000-0.5000 (  2762 PWs)   bands (ev):

    -7.3048  -7.3027  -6.8112  -6.8110  -6.8094  -6.8058  -6.5072  -6.4999
     5.0210   5.0216   5.0286   5.0370   5.7709   5.7762   6.0991   6.1049
     6.1068   6.1134   6.4058   6.4115   6.6536   6.6587   6.6859   6.6940
     6.7225   6.7301   6.7331   6.7408   8.1500   8.1554   8.1610   8.1674
     9.2525   9.2650   9.9532   9.9552  10.0336  10.0359  10.0485  10.0496
    10.0518  10.0637  10.1725  10.1764  10.3524  10.3556  10.4993  10.4993
    10.5219  10.5330  10.5847  10.5855  10.9145  10.9383  11.0079  11.0231
    11.1509  11.1658  11.2290  11.2535  11.3392  11.3432  11.3581  11.3635
    12.4644  12.4895  12.7226  12.7456  13.5204  13.5308  13.6203  13.6358
    17.6654  17.6707  19.2528  19.2530  19.2536

          k = 0.0000 0.2500-0.5000 (  2740 PWs)   bands (ev):

    -7.1466  -7.1454  -7.1451  -7.1414  -6.5739  -6.5700  -6.5691  -6.5619
     5.2792   5.2860   5.2879   5.3333   5.3821   5.5470   5.5472   5.6596
     6.2258   6.2558   6.2597   6.2931   6.6234   6.6245   6.6387   6.7674
     6.9034   7.2707   7.2777   7.4655   7.4842   7.5096   7.5127   7.5654
     9.7165   9.7431   9.7441   9.8123   9.9925  10.0424  10.0435  10.0729
    10.1234  10.2767  10.2925  10.2933  10.3497  10.3519  10.4063  10.4683
    10.6203  10.6695  10.6696  10.6944  10.9534  10.9601  10.9832  11.0018
    11.1828  11.1885  11.2052  11.2915  11.3066  11.3135  11.3778  11.3800
    12.7853  12.8916  12.9104  13.0162  13.1622  13.2016  13.2160  13.2609
    18.0203  18.0351  18.0392  18.0568  20.8618

          k = 0.1250 0.1250 0.1250 (  2743 PWs)   bands (ev):

    -7.8999  -6.9230  -6.6780  -6.6780  -6.6775  -6.6271  -6.6200  -6.6200
     4.3462   4.3567   4.3567   4.6165   5.3443   5.3450   5.3450   6.4835
     6.4852   6.4852   6.6249   6.6286   6.6286   6.7018   6.7018   7.2154
     7.2200   7.2200   7.7083   7.7121   7.7121   7.9768   8.4599   8.4599
     9.2692   9.2694   9.2694   9.6231   9.6231  10.0071  10.0691  10.0699
    10.0699  10.2833  10.2833  10.2881  10.6078  10.6078  10.6114  10.6325
    10.6325  10.7273  10.7301  10.7301  10.9236  10.9236  10.9483  10.9543
    10.9543  11.0469  11.2603  11.2749  11.2749  11.4059  11.4059  11.4125
    13.3401  13.3401  13.3537  13.3564  13.3564  13.3609  13.3859  13.3859
    14.7682  17.5961  18.6754  18.6754  18.6775

          k =-0.2500-0.2500-0.2500 (  2764 PWs)   bands (ev):

    -7.4462  -7.4382  -6.6670  -6.6670  -6.6659  -6.6457  -6.6381  -6.6381
     5.0104   5.0131   5.0131   5.1123   5.1232   5.1232   6.0810   6.1255
     6.2611   6.2611   6.2627   6.6972   6.7029   6.7029   6.7518   6.7518
     6.7529   6.9824   6.9824   7.4498   7.4602   7.4602   7.8753   7.8753
     9.4943   9.4943   9.4947   9.6779   9.6779  10.1198  10.1249  10.1249
    10.1250  10.4654  10.4654  10.4727  10.5110  10.5110  10.5110  10.7442
    10.7442  10.8455  10.8455  10.8468  10.8866  11.0591  11.0591  11.0602
    11.2485  11.2635  11.2635  11.3031  11.3031  11.4133  11.4133  11.4203
    13.0434  13.0486  13.0486  13.0640  13.0640  13.0745  13.1045  13.1045
    16.4125  16.5596  19.6321  19.6321  19.6339

          k =-0.3750-0.1250-0.3750 (  2734 PWs)   bands (ev):

    -7.4964  -7.1658  -6.9589  -6.7645  -6.7626  -6.5876  -6.5494  -6.5435
     4.9655   4.9764   4.9792   5.2862   5.4418   5.4993   5.5045   6.2244
     6.2275   6.2320   6.2687   6.6571   6.6680   6.6711   6.7016   6.7085
     6.8329   7.0853   7.0892   7.2756   7.3853   7.7585   7.7667   8.0575
     9.3595   9.5493   9.7640   9.7640   9.7890  10.0644  10.1000  10.1002
    10.2917  10.2970  10.4265  10.4283  10.4487  10.5599  10.5621  10.5639
    10.5828  10.6547  10.6568  10.6590  10.8511  10.8850  10.8929  10.9721
    11.0798  11.2520  11.2836  11.3133  11.3138  11.3709  11.3778  11.4359
    12.7049  12.8507  12.8875  12.9127  13.2887  13.3400  13.3459  13.3704
    16.6951  17.6058  18.6708  19.3607  19.3613

          k = 0.3750-0.1250 0.3750 (  2734 PWs)   bands (ev):

    -7.4963  -7.1657  -6.9588  -6.7642  -6.7623  -6.5880  -6.5497  -6.5438
     4.9706   4.9771   4.9812   5.2454   5.5019   5.5065   5.5096   6.1261
     6.2304   6.2352   6.3482   6.5690   6.5736   6.6653   6.8232   6.8267
     6.8352   7.0471   7.0508   7.1582   7.5121   7.7512   7.7770   8.0052
     9.3880   9.5621   9.9474   9.9494  10.0247  10.0284  10.0481  10.0495
    10.0630  10.1827  10.2183  10.2193  10.4069  10.4495  10.5050  10.5055
    10.6683  10.7007  10.7021  10.7177  10.9036  10.9584  11.1008  11.1121
    11.2216  11.2266  11.2472  11.2762  11.2909  11.2980  11.3533  11.3684
    12.7520  12.8122  12.8847  12.9083  13.2630  13.3452  13.3524  13.3752
    16.6952  17.6044  18.6729  19.3615  19.3622

          k =-0.2500 0.0000-0.2500 (  2742 PWs)   bands (ev):

    -7.6347  -7.0106  -7.0102  -6.7118  -6.7114  -6.5962  -6.5921  -6.5369
     4.7719   4.7799   5.0793   5.0869   5.2434   5.2443   5.7045   5.9699
     6.3174   6.3198   6.5869   6.6793   6.6846   6.7917   6.8640   6.9243
     7.0232   7.1621   7.1697   7.2088   7.2121   7.4949   7.8420   8.1264
     9.5603   9.6126   9.6417   9.6429   9.7798  10.0784  10.0799  10.1348
    10.2466  10.2534  10.3097  10.3949  10.4536  10.5654  10.5672  10.5703
    10.6439  10.6681  10.6708  10.7574  10.7726  10.8277  11.0550  11.0608
    11.1178  11.2776  11.2861  11.3538  11.3763  11.3875  11.3948  11.4140
    13.0484  13.0522  13.0573  13.0737  13.0921  13.2103  13.2199  13.2540
    16.0101  18.0604  18.0646  19.3713  19.3766

     the Fermi energy is    11.9648 ev

!    total energy              =    -941.92021131 Ry
     Harris-Foulkes estimate   =    -941.92021129 Ry
     estimated scf accuracy    <          5.7E-09 Ry

     The total energy is the sum of the following terms:

     one-electron contribution =     -56.31402821 Ry
     hartree contribution      =     175.69494842 Ry
     xc contribution           =    -297.53952284 Ry
     ewald contribution        =    -763.85740583 Ry
     Hubbard energy            =       0.09579715 Ry
     smearing contrib. (-TS)   =       0.00000000 Ry

     total magnetization       =     0.00 Bohr mag/cell
     absolute magnetization    =    12.31 Bohr mag/cell

     convergence has been achieved in   8 iterations

     Writing output data file nio.save
 
     init_run     :     14.38s CPU     16.65s WALL (       1 calls)
     electrons    :    298.77s CPU    317.17s WALL (       1 calls)

     Called by init_run:
     wfcinit      :      0.71s CPU      1.70s WALL (       1 calls)
     potinit      :      1.24s CPU      1.47s WALL (       1 calls)

     Called by electrons:
     c_bands      :    110.70s CPU    117.02s WALL (       8 calls)
     sum_band     :    102.12s CPU    105.15s WALL (       8 calls)
     v_of_rho     :      8.47s CPU      9.57s WALL (       9 calls)
     newd         :     84.82s CPU     93.45s WALL (       9 calls)
     mix_rho      :      1.28s CPU      1.44s WALL (       8 calls)

     Called by c_bands:
     init_us_2    :      1.16s CPU      1.25s WALL (     119 calls)
     cegterg      :    106.85s CPU    112.51s WALL (      56 calls)

     Called by *egterg:
     h_psi        :     76.56s CPU     79.70s WALL (     251 calls)
     s_psi        :      6.83s CPU      6.89s WALL (     258 calls)
     g_psi        :      0.35s CPU      0.38s WALL (     195 calls)
     cdiaghg      :      6.41s CPU      6.42s WALL (     244 calls)

     Called by h_psi:
     add_vuspsi   :      6.49s CPU      6.51s WALL (     251 calls)

     General routines
     calbec       :     11.60s CPU     11.65s WALL (     621 calls)
     fft          :      7.32s CPU      8.32s WALL (     267 calls)
     ffts         :      0.08s CPU      0.12s WALL (      34 calls)
     fftw         :     43.57s CPU     47.70s WALL (   25416 calls)
     interpolate  :      1.38s CPU      1.76s WALL (      34 calls)
     davcio       :      0.00s CPU      2.36s WALL (     350 calls)
 
     Parallel routines
     fft_scatter  :      9.02s CPU     10.51s WALL (   25717 calls)
     EXX routines
 
     PWSCF        :  5m13.51s CPU     5m34.44s WALL

 
   This run was terminated on:  16:41: 0  16Jun2012            

=------------------------------------------------------------------------------=
   JOB DONE.
=------------------------------------------------------------------------------=
