
     Program PWSCF v.5.0        starts on 16Jun2012 at 16:46: 3 

     This program is part of the open-source Quantum ESPRESSO suite
     for quantum simulation of materials; please cite
         "P. Giannozzi et al., J. Phys.:Condens. Matter 21 395502 (2009);
          URL http://www.quantum-espresso.org", 
     in publications or presentations arising from this work. More details at
     http://www.quantum-espresso.org/quote.php

     Parallel version (MPI), running on     4 processors
     K-points division:     npool     =    4

     Current dimensions of program PWSCF are:
     Max number of different atomic species (ntypx) = 10
     Max number of k-points (npk) =  40000
     Max angular momentum in pseudopotentials (lmaxx) =  3
     Waiting for input...
     Reading input from standard input
               file Ni.pbe-nd-rrkjus.UPF: wavefunction(s)  4S renormalized
               file Ni.pbe-nd-rrkjus.UPF: wavefunction(s)  4S renormalized
               file Ni.pbe-nd-rrkjus.UPF: wavefunction(s)  4S renormalized
               file O.pbe-rrkjus.UPF: wavefunction(s)  2S renormalized

     Subspace diagonalization in iterative solution of the eigenvalue problem:
     a serial algorithm will be used

 
     G-vector sticks info
     --------------------
     sticks:   dense  smooth     PW     G-vecs:    dense   smooth      PW
     Sum        2587    1039    301                86547    22075    3479
 


     bravais-lattice index     =            0
     lattice parameter (alat)  =       7.9000  a.u.
     unit-cell volume          =     986.0780 (a.u.)^3
     number of atoms/cell      =           16
     number of atomic types    =            4
     number of electrons       =       128.00
     number of Kohn-Sham states=           77
     kinetic-energy cutoff     =      30.0000  Ry
     charge density cutoff     =     300.0000  Ry
     convergence threshold     =      1.0E-08
     mixing beta               =       0.3000
     number of iterations used =            8  plain     mixing
     Exchange-correlation      =  SLA  PW   PBE  PBE ( 1 4 3 4 0)
     EXX-fraction              =        0.00

     celldm(1)=   7.900000  celldm(2)=   0.000000  celldm(3)=   0.000000
     celldm(4)=   0.000000  celldm(5)=   0.000000  celldm(6)=   0.000000

     crystal axes: (cart. coord. in units of alat)
               a(1) = (   1.000000   1.000000   0.000000 )  
               a(2) = (   1.000000   0.000000   1.000000 )  
               a(3) = (   0.000000   1.000000   1.000000 )  

     reciprocal axes: (cart. coord. in units 2 pi/alat)
               b(1) = (  0.500000  0.500000 -0.500000 )  
               b(2) = (  0.500000 -0.500000  0.500000 )  
               b(3) = ( -0.500000  0.500000  0.500000 )  


     PseudoPot. # 1 for Ni read from file:
     ../pseudo/Ni.pbe-nd-rrkjus.UPF
     MD5 check sum: 8081f0a005c9a5470caab1a58e82ecb2
     Pseudo is Ultrasoft + core correction, Zval = 10.0
     Generated by new atomic code, or converted to UPF format
     Using radial grid of 1203 points,  6 beta functions with: 
                l(1) =   0
                l(2) =   0
                l(3) =   1
                l(4) =   1
                l(5) =   2
                l(6) =   2
     Q(r) pseudized with 0 coefficients 


     PseudoPot. # 2 for Ni read from file:
     ../pseudo/Ni.pbe-nd-rrkjus.UPF
     MD5 check sum: 8081f0a005c9a5470caab1a58e82ecb2
     Pseudo is Ultrasoft + core correction, Zval = 10.0
     Generated by new atomic code, or converted to UPF format
     Using radial grid of 1203 points,  6 beta functions with: 
                l(1) =   0
                l(2) =   0
                l(3) =   1
                l(4) =   1
                l(5) =   2
                l(6) =   2
     Q(r) pseudized with 0 coefficients 


     PseudoPot. # 3 for Ni read from file:
     ../pseudo/Ni.pbe-nd-rrkjus.UPF
     MD5 check sum: 8081f0a005c9a5470caab1a58e82ecb2
     Pseudo is Ultrasoft + core correction, Zval = 10.0
     Generated by new atomic code, or converted to UPF format
     Using radial grid of 1203 points,  6 beta functions with: 
                l(1) =   0
                l(2) =   0
                l(3) =   1
                l(4) =   1
                l(5) =   2
                l(6) =   2
     Q(r) pseudized with 0 coefficients 


     PseudoPot. # 4 for O  read from file:
     ../pseudo/O.pbe-rrkjus.UPF
     MD5 check sum: 390ba29e75625707450f3bd3f0eb6be9
     Pseudo is Ultrasoft, Zval =  6.0
     Generated by new atomic code, or converted to UPF format
     Using radial grid of 1269 points,  4 beta functions with: 
                l(1) =   0
                l(2) =   0
                l(3) =   1
                l(4) =   1
     Q(r) pseudized with 0 coefficients 


     atomic species   valence    mass     pseudopotential
        Ni1           10.00     1.00000     Ni( 1.00)
        Ni2           10.00     1.00000     Ni( 1.00)
        Ni3           10.00     1.00000     Ni( 1.00)
        O1             6.00     1.00000     O ( 1.00)

     Starting magnetic structure 
     atomic species   magnetization
        Ni1          0.500
        Ni2          0.500
        Ni3         -0.500
        O1           0.000
 -----
     simplified LDA+U calculation, Hubbard_lmax = 2
     atomic species  L   Hubbard U  Hubbard alpha
        Ni1          2    0.000000    0.070000
        Ni2          2    0.000000    0.000000
        Ni3          2    0.000000    0.000000
        O1           1    0.000000    0.000000
 -----

     12 Sym. Ops., with inversion, found



   Cartesian axes

     site n.     atom                  positions (alat units)
         1           Ni1 tau(   1) = (   0.0000000   0.0000000   0.0000000  )
         2           Ni2 tau(   2) = (   1.0000000   0.5000000   0.5000000  )
         3           Ni2 tau(   3) = (   0.5000000   1.0000000   0.5000000  )
         4           Ni2 tau(   4) = (   0.5000000   0.5000000   1.0000000  )
         5           Ni3 tau(   5) = (   0.5000000   0.5000000   0.0000000  )
         6           Ni3 tau(   6) = (   0.5000000   0.0000000   0.5000000  )
         7           Ni3 tau(   7) = (   0.0000000   0.5000000   0.5000000  )
         8           Ni3 tau(   8) = (   1.0000000   1.0000000   1.0000000  )
         9           O1  tau(   9) = (   0.0000000   0.0000000   0.5000000  )
        10           O1  tau(  10) = (   0.5000000   0.5000000   0.5000000  )
        11           O1  tau(  11) = (   0.0000000   0.5000000   1.0000000  )
        12           O1  tau(  12) = (   0.5000000   0.0000000   1.0000000  )
        13           O1  tau(  13) = (   1.0000000   0.5000000   1.0000000  )
        14           O1  tau(  14) = (   0.5000000   1.0000000   1.0000000  )
        15           O1  tau(  15) = (   0.5000000   0.5000000   1.5000000  )
        16           O1  tau(  16) = (   1.0000000   1.0000000   1.5000000  )

     number of k points=    26  gaussian smearing, width (Ry)=  0.0100
                       cart. coord. in units 2pi/alat
        k(    1) = (   0.0000000   0.0000000   0.0000000), wk =   0.0156250
        k(    2) = (  -0.1250000   0.1250000   0.1250000), wk =   0.0937500
        k(    3) = (   0.2500000  -0.2500000  -0.2500000), wk =   0.0468750
        k(    4) = (   0.0000000   0.0000000   0.2500000), wk =   0.0937500
        k(    5) = (   0.3750000  -0.3750000  -0.1250000), wk =   0.1875000
        k(    6) = (   0.2500000  -0.2500000   0.0000000), wk =   0.0937500
        k(    7) = (   0.0000000   0.0000000  -0.5000000), wk =   0.0468750
        k(    8) = (   0.0000000   0.2500000  -0.5000000), wk =   0.0937500
        k(    9) = (   0.1250000   0.1250000   0.1250000), wk =   0.0312500
        k(   10) = (  -0.2500000  -0.2500000  -0.2500000), wk =   0.0156250
        k(   11) = (  -0.3750000  -0.1250000  -0.3750000), wk =   0.0937500
        k(   12) = (   0.3750000  -0.1250000   0.3750000), wk =   0.0937500
        k(   13) = (  -0.2500000   0.0000000  -0.2500000), wk =   0.0937500
        k(   14) = (   0.0000000   0.0000000   0.0000000), wk =   0.0156250
        k(   15) = (  -0.1250000   0.1250000   0.1250000), wk =   0.0937500
        k(   16) = (   0.2500000  -0.2500000  -0.2500000), wk =   0.0468750
        k(   17) = (   0.0000000   0.0000000   0.2500000), wk =   0.0937500
        k(   18) = (   0.3750000  -0.3750000  -0.1250000), wk =   0.1875000
        k(   19) = (   0.2500000  -0.2500000   0.0000000), wk =   0.0937500
        k(   20) = (   0.0000000   0.0000000  -0.5000000), wk =   0.0468750
        k(   21) = (   0.0000000   0.2500000  -0.5000000), wk =   0.0937500
        k(   22) = (   0.1250000   0.1250000   0.1250000), wk =   0.0312500
        k(   23) = (  -0.2500000  -0.2500000  -0.2500000), wk =   0.0156250
        k(   24) = (  -0.3750000  -0.1250000  -0.3750000), wk =   0.0937500
        k(   25) = (   0.3750000  -0.1250000   0.3750000), wk =   0.0937500
        k(   26) = (  -0.2500000   0.0000000  -0.2500000), wk =   0.0937500

     Dense  grid:    86547 G-vectors     FFT dimensions: (  64,  64,  64)

     Smooth grid:    22075 G-vectors     FFT dimensions: (  40,  40,  40)

     Largest allocated arrays     est. size (Mb)     dimensions
        Kohn-Sham Wavefunctions         3.25 Mb     (   2764,   77)
        Atomic wavefunctions            3.37 Mb     (   2764,   80)
        NL pseudopotentials             8.77 Mb     (   2764,  208)
        Each V/rho on FFT grid          8.00 Mb     ( 262144,   2)
        Each G-vector array             0.66 Mb     (  86547)
        G-vector shells                 0.00 Mb     (    635)
     Largest temporary arrays     est. size (Mb)     dimensions
        Auxiliary wavefunctions        12.99 Mb     (   2764,  308)
        Each subspace H/S matrix        1.45 Mb     ( 308, 308)
        Each <psi_i|beta_j> matrix      0.24 Mb     (    208,   77)
        Arrays for rho mixing          32.00 Mb     ( 262144,   8)

     Check: negative/imaginary core charge=   -0.000047    0.000000

     The initial density is read from file :
     ./temp/nio.save/charge-density.dat

     Number of +U iterations with fixed ns =  0
     Starting occupations:
 --- enter write_ns ---
 LDA+U parameters:
U( 1)     =  0.00000000
alpha( 1) =  0.07000000
U( 2)     =  0.00000000
alpha( 2) =  0.00000000
U( 3)     =  0.00000000
alpha( 3) =  0.00000000
U( 4)     =  0.00000000
alpha( 4) =  0.00000000
atom    1   Tr[ns(na)] (up, down, total) =   4.95240  3.75362  8.70602
   spin  1
    eigenvalues: 
  0.980  0.980  0.997  0.997  0.997
    eigenvectors:
  0.161  0.839  0.000  0.000  0.000
  0.000  0.000  0.218  0.449  0.333
  0.000  0.000  0.120  0.546  0.333
  0.839  0.161  0.000  0.000  0.000
  0.000  0.000  0.662  0.005  0.333
    occupations:
  0.980  0.000  0.000  0.000  0.000
  0.000  0.997  0.000  0.000  0.000
  0.000  0.000  0.997  0.000  0.000
  0.000  0.000  0.000  0.980  0.000
  0.000  0.000  0.000  0.000  0.997
   spin  2
    eigenvalues: 
  0.384  0.384  0.995  0.995  0.995
    eigenvectors:
  0.002  0.998  0.000  0.000  0.000
  0.000  0.000  0.000  0.667  0.333
  0.000  0.000  0.499  0.168  0.333
  0.998  0.002  0.000  0.000  0.000
  0.000  0.000  0.501  0.166  0.333
    occupations:
  0.384  0.001  0.001  0.000  0.001
  0.001  0.995  0.000  0.001  0.000
  0.001  0.000  0.995 -0.001  0.000
  0.000  0.001 -0.001  0.384  0.000
  0.001  0.000  0.000  0.000  0.995
atomic mag. moment =     1.198787
atom    2   Tr[ns(na)] (up, down, total) =   4.95241  3.75363  8.70603
   spin  1
    eigenvalues: 
  0.980  0.980  0.997  0.997  0.997
    eigenvectors:
  0.250  0.750  0.000  0.000  0.000
  0.000  0.000  0.500  0.167  0.333
  0.000  0.000  0.000  0.667  0.333
  0.750  0.250  0.000  0.000  0.000
  0.000  0.000  0.500  0.167  0.333
    occupations:
  0.980  0.000  0.000  0.000  0.000
  0.000  0.997  0.000  0.000  0.000
  0.000  0.000  0.997  0.000  0.000
  0.000  0.000  0.000  0.980  0.000
  0.000  0.000  0.000  0.000  0.997
   spin  2
    eigenvalues: 
  0.384  0.384  0.995  0.995  0.995
    eigenvectors:
  0.750  0.250  0.000  0.000  0.000
  0.000  0.000  0.500  0.167  0.333
  0.000  0.000  0.000  0.666  0.334
  0.250  0.750  0.000  0.000  0.000
  0.000  0.000  0.500  0.167  0.333
    occupations:
  0.384  0.001  0.001  0.000  0.001
  0.001  0.995  0.000  0.001  0.000
  0.001  0.000  0.995 -0.001  0.000
  0.000  0.001 -0.001  0.384  0.000
  0.001  0.000  0.000  0.000  0.995
atomic mag. moment =     1.198778
atom    3   Tr[ns(na)] (up, down, total) =   4.95241  3.75363  8.70603
   spin  1
    eigenvalues: 
  0.980  0.980  0.997  0.997  0.997
    eigenvectors:
  0.250  0.750  0.000  0.000  0.000
  0.000  0.000  0.000  0.667  0.333
  0.000  0.000  0.500  0.167  0.333
  0.750  0.250  0.000  0.000  0.000
  0.000  0.000  0.500  0.167  0.333
    occupations:
  0.980  0.000  0.000  0.000  0.000
  0.000  0.997  0.000  0.000  0.000
  0.000  0.000  0.997  0.000  0.000
  0.000  0.000  0.000  0.980  0.000
  0.000  0.000  0.000  0.000  0.997
   spin  2
    eigenvalues: 
  0.384  0.384  0.995  0.995  0.995
    eigenvectors:
  0.750  0.250  0.000  0.000  0.000
  0.000  0.000  0.000  0.666  0.334
  0.000  0.000  0.500  0.167  0.333
  0.250  0.750  0.000  0.000  0.000
  0.000  0.000  0.500  0.167  0.333
    occupations:
  0.384  0.001  0.001  0.000  0.001
  0.001  0.995  0.000  0.001  0.000
  0.001  0.000  0.995 -0.001  0.000
  0.000  0.001 -0.001  0.384  0.000
  0.001  0.000  0.000  0.000  0.995
atomic mag. moment =     1.198778
atom    4   Tr[ns(na)] (up, down, total) =   4.95241  3.75363  8.70603
   spin  1
    eigenvalues: 
  0.980  0.980  0.997  0.997  0.997
    eigenvectors:
  1.000  0.000  0.000  0.000  0.000
  0.000  0.000  0.500  0.167  0.333
  0.000  0.000  0.500  0.167  0.333
  0.000  1.000  0.000  0.000  0.000
  0.000  0.000  0.000  0.667  0.333
    occupations:
  0.980  0.000  0.000  0.000  0.000
  0.000  0.997  0.000  0.000  0.000
  0.000  0.000  0.997  0.000  0.000
  0.000  0.000  0.000  0.980  0.000
  0.000  0.000  0.000  0.000  0.997
   spin  2
    eigenvalues: 
  0.384  0.384  0.995  0.995  0.995
    eigenvectors:
  0.000  1.000  0.000  0.000  0.000
  0.000  0.000  0.500  0.167  0.333
  0.000  0.000  0.500  0.167  0.333
  1.000  0.000  0.000  0.000  0.000
  0.000  0.000  0.000  0.666  0.334
    occupations:
  0.384  0.001  0.001  0.000  0.001
  0.001  0.995  0.000  0.001  0.000
  0.001  0.000  0.995 -0.001  0.000
  0.000  0.001 -0.001  0.384  0.000
  0.001  0.000  0.000  0.000  0.995
atomic mag. moment =     1.198778
atom    5   Tr[ns(na)] (up, down, total) =   3.75362  4.95240  8.70603
   spin  1
    eigenvalues: 
  0.384  0.384  0.995  0.995  0.995
    eigenvectors:
  0.000  1.000  0.000  0.000  0.000
  0.000  0.000  0.167  0.500  0.333
  0.000  0.000  0.167  0.500  0.333
  1.000  0.000  0.000  0.000  0.000
  0.000  0.000  0.667  0.000  0.333
    occupations:
  0.384  0.001  0.001  0.000  0.001
  0.001  0.995  0.000  0.001  0.000
  0.001  0.000  0.995 -0.001  0.000
  0.000  0.001 -0.001  0.384  0.000
  0.001  0.000  0.000  0.000  0.995
   spin  2
    eigenvalues: 
  0.980  0.980  0.997  0.997  0.997
    eigenvectors:
  1.000  0.000  0.000  0.000  0.000
  0.000  0.000  0.500  0.167  0.333
  0.000  0.000  0.500  0.167  0.333
  0.000  1.000  0.000  0.000  0.000
  0.000  0.000  0.000  0.666  0.334
    occupations:
  0.980  0.000  0.000  0.000  0.000
  0.000  0.997  0.000  0.000  0.000
  0.000  0.000  0.997  0.000  0.000
  0.000  0.000  0.000  0.980  0.000
  0.000  0.000  0.000  0.000  0.997
atomic mag. moment =    -1.198782
atom    6   Tr[ns(na)] (up, down, total) =   3.75362  4.95240  8.70603
   spin  1
    eigenvalues: 
  0.384  0.384  0.995  0.995  0.995
    eigenvectors:
  0.750  0.250  0.000  0.000  0.000
  0.000  0.000  0.667  0.000  0.333
  0.000  0.000  0.167  0.500  0.333
  0.250  0.750  0.000  0.000  0.000
  0.000  0.000  0.167  0.500  0.333
    occupations:
  0.384  0.001  0.001  0.000  0.001
  0.001  0.995  0.000  0.001  0.000
  0.001  0.000  0.995 -0.001  0.000
  0.000  0.001 -0.001  0.384  0.000
  0.001  0.000  0.000  0.000  0.995
   spin  2
    eigenvalues: 
  0.980  0.980  0.997  0.997  0.997
    eigenvectors:
  0.250  0.750  0.000  0.000  0.000
  0.000  0.000  0.000  0.666  0.334
  0.000  0.000  0.500  0.167  0.333
  0.750  0.250  0.000  0.000  0.000
  0.000  0.000  0.500  0.167  0.333
    occupations:
  0.980  0.000  0.000  0.000  0.000
  0.000  0.997  0.000  0.000  0.000
  0.000  0.000  0.997  0.000  0.000
  0.000  0.000  0.000  0.980  0.000
  0.000  0.000  0.000  0.000  0.997
atomic mag. moment =    -1.198782
atom    7   Tr[ns(na)] (up, down, total) =   3.75362  4.95240  8.70603
   spin  1
    eigenvalues: 
  0.384  0.384  0.995  0.995  0.995
    eigenvectors:
  0.750  0.250  0.000  0.000  0.000
  0.000  0.000  0.167  0.500  0.333
  0.000  0.000  0.667  0.000  0.333
  0.250  0.750  0.000  0.000  0.000
  0.000  0.000  0.167  0.500  0.333
    occupations:
  0.384  0.001  0.001  0.000  0.001
  0.001  0.995  0.000  0.001  0.000
  0.001  0.000  0.995 -0.001  0.000
  0.000  0.001 -0.001  0.384  0.000
  0.001  0.000  0.000  0.000  0.995
   spin  2
    eigenvalues: 
  0.980  0.980  0.997  0.997  0.997
    eigenvectors:
  0.250  0.750  0.000  0.000  0.000
  0.000  0.000  0.500  0.167  0.333
  0.000  0.000  0.000  0.666  0.334
  0.750  0.250  0.000  0.000  0.000
  0.000  0.000  0.500  0.167  0.333
    occupations:
  0.980  0.000  0.000  0.000  0.000
  0.000  0.997  0.000  0.000  0.000
  0.000  0.000  0.997  0.000  0.000
  0.000  0.000  0.000  0.980  0.000
  0.000  0.000  0.000  0.000  0.997
atomic mag. moment =    -1.198782
atom    8   Tr[ns(na)] (up, down, total) =   3.75362  4.95241  8.70603
   spin  1
    eigenvalues: 
  0.384  0.384  0.995  0.995  0.995
    eigenvectors:
  0.011  0.989  0.000  0.000  0.000
  0.000  0.000  0.110  0.557  0.333
  0.000  0.000  0.231  0.436  0.333
  0.989  0.011  0.000  0.000  0.000
  0.000  0.000  0.659  0.007  0.333
    occupations:
  0.384  0.001  0.001  0.000  0.001
  0.001  0.995  0.000  0.001  0.000
  0.001  0.000  0.995 -0.001  0.000
  0.000  0.001 -0.001  0.384  0.000
  0.001  0.000  0.000  0.000  0.995
   spin  2
    eigenvalues: 
  0.980  0.980  0.997  0.997  0.997
    eigenvectors:
  0.319  0.681  0.000  0.000  0.000
  0.000  0.000  0.031  0.635  0.333
  0.000  0.000  0.362  0.305  0.333
  0.681  0.319  0.000  0.000  0.000
  0.000  0.000  0.607  0.060  0.333
    occupations:
  0.980  0.000  0.000  0.000  0.000
  0.000  0.997  0.000  0.000  0.000
  0.000  0.000  0.997  0.000  0.000
  0.000  0.000  0.000  0.980  0.000
  0.000  0.000  0.000  0.000  0.997
atomic mag. moment =    -1.198781
atom    9   Tr[ns(na)] (up, down, total) =   2.81114  2.81114  5.62228
   spin  1
    eigenvalues: 
  0.937  0.937  0.938
    eigenvectors:
  0.667  0.000  0.333
  0.167  0.500  0.333
  0.167  0.500  0.333
    occupations:
  0.937  0.000  0.000
  0.000  0.937  0.000
  0.000  0.000  0.937
   spin  2
    eigenvalues: 
  0.937  0.937  0.938
    eigenvectors:
  0.000  0.666  0.334
  0.500  0.167  0.333
  0.500  0.167  0.333
    occupations:
  0.937  0.000  0.000
  0.000  0.937  0.000
  0.000  0.000  0.937
atomic mag. moment =     0.000000
atom   10   Tr[ns(na)] (up, down, total) =   2.81114  2.81114  5.62228
   spin  1
    eigenvalues: 
  0.937  0.937  0.938
    eigenvectors:
  0.520  0.147  0.333
  0.479  0.187  0.333
  0.001  0.666  0.333
    occupations:
  0.937  0.000  0.000
  0.000  0.937  0.000
  0.000  0.000  0.937
   spin  2
    eigenvalues: 
  0.937  0.937  0.938
    eigenvectors:
  0.345  0.322  0.333
  0.616  0.051  0.333
  0.039  0.628  0.333
    occupations:
  0.937  0.000  0.000
  0.000  0.937  0.000
  0.000  0.000  0.937
atomic mag. moment =     0.000001
atom   11   Tr[ns(na)] (up, down, total) =   2.81114  2.81114  5.62228
   spin  1
    eigenvalues: 
  0.937  0.937  0.938
    eigenvectors:
  0.167  0.500  0.333
  0.167  0.500  0.333
  0.667  0.000  0.333
    occupations:
  0.937  0.000  0.000
  0.000  0.937  0.000
  0.000  0.000  0.937
   spin  2
    eigenvalues: 
  0.937  0.937  0.938
    eigenvectors:
  0.500  0.167  0.333
  0.500  0.167  0.333
  0.000  0.666  0.334
    occupations:
  0.937  0.000  0.000
  0.000  0.937  0.000
  0.000  0.000  0.937
atomic mag. moment =     0.000000
atom   12   Tr[ns(na)] (up, down, total) =   2.81114  2.81114  5.62228
   spin  1
    eigenvalues: 
  0.937  0.937  0.938
    eigenvectors:
  0.167  0.500  0.333
  0.667  0.000  0.333
  0.167  0.500  0.333
    occupations:
  0.937  0.000  0.000
  0.000  0.937  0.000
  0.000  0.000  0.937
   spin  2
    eigenvalues: 
  0.937  0.937  0.938
    eigenvectors:
  0.500  0.167  0.333
  0.000  0.666  0.334
  0.500  0.167  0.333
    occupations:
  0.937  0.000  0.000
  0.000  0.937  0.000
  0.000  0.000  0.937
atomic mag. moment =     0.000000
atom   13   Tr[ns(na)] (up, down, total) =   2.81114  2.81114  5.62228
   spin  1
    eigenvalues: 
  0.937  0.937  0.938
    eigenvectors:
  0.167  0.500  0.333
  0.167  0.500  0.333
  0.667  0.000  0.333
    occupations:
  0.937  0.000  0.000
  0.000  0.937  0.000
  0.000  0.000  0.937
   spin  2
    eigenvalues: 
  0.937  0.937  0.938
    eigenvectors:
  0.500  0.167  0.333
  0.500  0.167  0.333
  0.000  0.666  0.334
    occupations:
  0.937  0.000  0.000
  0.000  0.937  0.000
  0.000  0.000  0.937
atomic mag. moment =     0.000000
atom   14   Tr[ns(na)] (up, down, total) =   2.81114  2.81114  5.62228
   spin  1
    eigenvalues: 
  0.937  0.937  0.938
    eigenvectors:
  0.167  0.500  0.333
  0.667  0.000  0.333
  0.167  0.500  0.333
    occupations:
  0.937  0.000  0.000
  0.000  0.937  0.000
  0.000  0.000  0.937
   spin  2
    eigenvalues: 
  0.937  0.937  0.938
    eigenvectors:
  0.500  0.167  0.333
  0.000  0.666  0.334
  0.500  0.167  0.333
    occupations:
  0.937  0.000  0.000
  0.000  0.937  0.000
  0.000  0.000  0.937
atomic mag. moment =     0.000000
atom   15   Tr[ns(na)] (up, down, total) =   2.81114  2.81114  5.62228
   spin  1
    eigenvalues: 
  0.937  0.937  0.938
    eigenvectors:
  0.421  0.246  0.333
  0.568  0.099  0.333
  0.011  0.656  0.333
    occupations:
  0.937  0.000  0.000
  0.000  0.937  0.000
  0.000  0.000  0.937
   spin  2
    eigenvalues: 
  0.937  0.937  0.938
    eigenvectors:
  0.345  0.322  0.333
  0.616  0.051  0.333
  0.039  0.628  0.333
    occupations:
  0.937  0.000  0.000
  0.000  0.937  0.000
  0.000  0.000  0.937
atomic mag. moment =     0.000001
atom   16   Tr[ns(na)] (up, down, total) =   2.81114  2.81114  5.62228
   spin  1
    eigenvalues: 
  0.937  0.937  0.938
    eigenvectors:
  0.667  0.000  0.333
  0.167  0.500  0.333
  0.167  0.500  0.333
    occupations:
  0.937  0.000  0.000
  0.000  0.937  0.000
  0.000  0.000  0.937
   spin  2
    eigenvalues: 
  0.937  0.937  0.938
    eigenvectors:
  0.000  0.666  0.334
  0.500  0.167  0.333
  0.500  0.167  0.333
    occupations:
  0.937  0.000  0.000
  0.000  0.937  0.000
  0.000  0.000  0.937
atomic mag. moment =     0.000000
N of occupied +U levels = 114.6264869
 --- exit write_ns ---
 Atomic wfc used for LDA+U Projector are NOT orthogonalized
     Starting wfc from file

     total cpu time spent up to now is       16.5 secs

     per-process dynamical memory:    86.3 Mb

     Self-consistent Calculation

     iteration #  1     ecut=    30.00 Ry     beta=0.30
     Davidson diagonalization with overlap
     ethr =  9.70E-11,  avg # of iterations = 10.8
 --- enter write_ns ---
 LDA+U parameters:
U( 1)     =  0.00000000
alpha( 1) =  0.07000000
U( 2)     =  0.00000000
alpha( 2) =  0.00000000
U( 3)     =  0.00000000
alpha( 3) =  0.00000000
U( 4)     =  0.00000000
alpha( 4) =  0.00000000
atom    1   Tr[ns(na)] (up, down, total) =   4.95099  3.73891  8.68989
   spin  1
    eigenvalues: 
  0.980  0.980  0.997  0.997  0.997
    eigenvectors:
  0.617  0.383  0.000  0.000  0.000
  0.000  0.000  0.093  0.574  0.333
  0.000  0.000  0.253  0.413  0.333
  0.383  0.617  0.000  0.000  0.000
  0.000  0.000  0.654  0.013  0.333
    occupations:
  0.980  0.000  0.000  0.000  0.000
  0.000  0.997  0.000  0.000  0.000
  0.000  0.000  0.997  0.000  0.000
  0.000  0.000  0.000  0.980  0.000
  0.000  0.000  0.000  0.000  0.997
   spin  2
    eigenvalues: 
  0.377  0.377  0.995  0.995  0.995
    eigenvectors:
  0.052  0.948  0.000  0.000  0.000
  0.000  0.000  0.037  0.630  0.333
  0.000  0.000  0.349  0.318  0.333
  0.948  0.052  0.000  0.000  0.000
  0.000  0.000  0.614  0.053  0.333
    occupations:
  0.377  0.000  0.000  0.000  0.001
  0.000  0.995  0.000  0.001  0.000
  0.000  0.000  0.995 -0.001  0.000
  0.000  0.001 -0.001  0.377  0.000
  0.001  0.000  0.000  0.000  0.995
atomic mag. moment =     1.212077
atom    2   Tr[ns(na)] (up, down, total) =   4.95242  3.75402  8.70644
   spin  1
    eigenvalues: 
  0.980  0.980  0.997  0.997  0.997
    eigenvectors:
  0.250  0.750  0.000  0.000  0.000
  0.000  0.000  0.166  0.500  0.334
  0.000  0.000  0.667  0.000  0.333
  0.750  0.250  0.000  0.000  0.000
  0.000  0.000  0.166  0.500  0.334
    occupations:
  0.980  0.000  0.000  0.000  0.000
  0.000  0.997  0.000  0.000  0.000
  0.000  0.000  0.997  0.000  0.000
  0.000  0.000  0.000  0.980  0.000
  0.000  0.000  0.000  0.000  0.997
   spin  2
    eigenvalues: 
  0.384  0.384  0.995  0.995  0.996
    eigenvectors:
  0.750  0.250  0.000  0.000  0.000
  0.000  0.000  0.500  0.348  0.152
  0.000  0.000  0.000  0.304  0.696
  0.250  0.750  0.000  0.000  0.000
  0.000  0.000  0.500  0.348  0.152
    occupations:
  0.384  0.001  0.001  0.000  0.001
  0.001  0.995  0.000  0.001  0.000
  0.001  0.000  0.995 -0.001  0.000
  0.000  0.001 -0.001  0.384  0.000
  0.001  0.000  0.000  0.000  0.995
atomic mag. moment =     1.198395
atom    3   Tr[ns(na)] (up, down, total) =   4.95242  3.75402  8.70644
   spin  1
    eigenvalues: 
  0.980  0.980  0.997  0.997  0.997
    eigenvectors:
  0.250  0.750  0.000  0.000  0.000
  0.000  0.000  0.667  0.000  0.333
  0.000  0.000  0.166  0.500  0.334
  0.750  0.250  0.000  0.000  0.000
  0.000  0.000  0.166  0.500  0.334
    occupations:
  0.980  0.000  0.000  0.000  0.000
  0.000  0.997  0.000  0.000  0.000
  0.000  0.000  0.997  0.000  0.000
  0.000  0.000  0.000  0.980  0.000
  0.000  0.000  0.000  0.000  0.997
   spin  2
    eigenvalues: 
  0.384  0.384  0.995  0.995  0.996
    eigenvectors:
  0.750  0.250  0.000  0.000  0.000
  0.000  0.000  0.000  0.304  0.696
  0.000  0.000  0.500  0.348  0.152
  0.250  0.750  0.000  0.000  0.000
  0.000  0.000  0.500  0.348  0.152
    occupations:
  0.384  0.001  0.001  0.000  0.001
  0.001  0.995  0.000  0.001  0.000
  0.001  0.000  0.995 -0.001  0.000
  0.000  0.001 -0.001  0.384  0.000
  0.001  0.000  0.000  0.000  0.995
atomic mag. moment =     1.198395
atom    4   Tr[ns(na)] (up, down, total) =   4.95242  3.75402  8.70644
   spin  1
    eigenvalues: 
  0.980  0.980  0.997  0.997  0.997
    eigenvectors:
  1.000  0.000  0.000  0.000  0.000
  0.000  0.000  0.166  0.500  0.334
  0.000  0.000  0.166  0.500  0.334
  0.000  1.000  0.000  0.000  0.000
  0.000  0.000  0.667  0.000  0.333
    occupations:
  0.980  0.000  0.000  0.000  0.000
  0.000  0.997  0.000  0.000  0.000
  0.000  0.000  0.997  0.000  0.000
  0.000  0.000  0.000  0.980  0.000
  0.000  0.000  0.000  0.000  0.997
   spin  2
    eigenvalues: 
  0.384  0.384  0.995  0.995  0.996
    eigenvectors:
  0.000  1.000  0.000  0.000  0.000
  0.000  0.000  0.500  0.348  0.152
  0.000  0.000  0.500  0.348  0.152
  1.000  0.000  0.000  0.000  0.000
  0.000  0.000  0.000  0.304  0.696
    occupations:
  0.384  0.001  0.001  0.000  0.001
  0.001  0.995  0.000  0.001  0.000
  0.001  0.000  0.995 -0.001  0.000
  0.000  0.001 -0.001  0.384  0.000
  0.001  0.000  0.000  0.000  0.995
atomic mag. moment =     1.198395
atom    5   Tr[ns(na)] (up, down, total) =   3.75369  4.95247  8.70616
   spin  1
    eigenvalues: 
  0.384  0.384  0.995  0.995  0.995
    eigenvectors:
  0.000  1.000  0.000  0.000  0.000
  0.000  0.000  0.500  0.167  0.333
  0.000  0.000  0.500  0.167  0.333
  1.000  0.000  0.000  0.000  0.000
  0.000  0.000  0.000  0.665  0.335
    occupations:
  0.384  0.001  0.001  0.000  0.001
  0.001  0.995  0.000  0.001  0.000
  0.001  0.000  0.995 -0.001  0.000
  0.000  0.001 -0.001  0.384  0.000
  0.001  0.000  0.000  0.000  0.995
   spin  2
    eigenvalues: 
  0.980  0.980  0.997  0.997  0.997
    eigenvectors:
  0.000  1.000  0.000  0.000  0.000
  0.000  0.000  0.500  0.433  0.067
  0.000  0.000  0.500  0.433  0.067
  1.000  0.000  0.000  0.000  0.000
  0.000  0.000  0.000  0.134  0.866
    occupations:
  0.980  0.000  0.000  0.000  0.000
  0.000  0.997  0.000  0.000  0.000
  0.000  0.000  0.997  0.000  0.000
  0.000  0.000  0.000  0.980  0.000
  0.000  0.000  0.000  0.000  0.997
atomic mag. moment =    -1.198778
atom    6   Tr[ns(na)] (up, down, total) =   3.75369  4.95247  8.70616
   spin  1
    eigenvalues: 
  0.384  0.384  0.995  0.995  0.995
    eigenvectors:
  0.750  0.250  0.000  0.000  0.000
  0.000  0.000  0.000  0.665  0.335
  0.000  0.000  0.500  0.167  0.333
  0.250  0.750  0.000  0.000  0.000
  0.000  0.000  0.500  0.167  0.333
    occupations:
  0.384  0.000  0.001  0.000  0.001
  0.000  0.995  0.000  0.001  0.000
  0.001  0.000  0.995 -0.001  0.000
  0.000  0.001 -0.001  0.384  0.000
  0.001  0.000  0.000  0.000  0.995
   spin  2
    eigenvalues: 
  0.980  0.980  0.997  0.997  0.997
    eigenvectors:
  0.750  0.250  0.000  0.000  0.000
  0.000  0.000  0.000  0.134  0.866
  0.000  0.000  0.500  0.433  0.067
  0.250  0.750  0.000  0.000  0.000
  0.000  0.000  0.500  0.433  0.067
    occupations:
  0.980  0.000  0.000  0.000  0.000
  0.000  0.997  0.000  0.000  0.000
  0.000  0.000  0.997  0.000  0.000
  0.000  0.000  0.000  0.980  0.000
  0.000  0.000  0.000  0.000  0.997
atomic mag. moment =    -1.198778
atom    7   Tr[ns(na)] (up, down, total) =   3.75369  4.95247  8.70616
   spin  1
    eigenvalues: 
  0.384  0.384  0.995  0.995  0.995
    eigenvectors:
  0.750  0.250  0.000  0.000  0.000
  0.000  0.000  0.500  0.167  0.333
  0.000  0.000  0.000  0.665  0.335
  0.250  0.750  0.000  0.000  0.000
  0.000  0.000  0.500  0.167  0.333
    occupations:
  0.384  0.001  0.000  0.000  0.001
  0.001  0.995  0.000  0.001  0.000
  0.000  0.000  0.995 -0.001  0.000
  0.000  0.001 -0.001  0.384  0.000
  0.001  0.000  0.000  0.000  0.995
   spin  2
    eigenvalues: 
  0.980  0.980  0.997  0.997  0.997
    eigenvectors:
  0.750  0.250  0.000  0.000  0.000
  0.000  0.000  0.500  0.433  0.067
  0.000  0.000  0.000  0.134  0.866
  0.250  0.750  0.000  0.000  0.000
  0.000  0.000  0.500  0.433  0.067
    occupations:
  0.980  0.000  0.000  0.000  0.000
  0.000  0.997  0.000  0.000  0.000
  0.000  0.000  0.997  0.000  0.000
  0.000  0.000  0.000  0.980  0.000
  0.000  0.000  0.000  0.000  0.997
atomic mag. moment =    -1.198778
atom    8   Tr[ns(na)] (up, down, total) =   3.75522  4.95396  8.70919
   spin  1
    eigenvalues: 
  0.385  0.385  0.995  0.995  0.995
    eigenvectors:
  0.989  0.011  0.000  0.000  0.000
  0.000  0.000  0.127  0.540  0.333
  0.000  0.000  0.210  0.457  0.333
  0.011  0.989  0.000  0.000  0.000
  0.000  0.000  0.663  0.003  0.333
    occupations:
  0.385  0.001  0.001  0.000  0.001
  0.001  0.995  0.000  0.001  0.000
  0.001  0.000  0.995 -0.001  0.000
  0.000  0.001 -0.001  0.385  0.000
  0.001  0.000  0.000  0.000  0.995
   spin  2
    eigenvalues: 
  0.981  0.981  0.997  0.997  0.997
    eigenvectors:
  0.317  0.683  0.000  0.000  0.000
  0.000  0.000  0.137  0.530  0.333
  0.000  0.000  0.198  0.468  0.333
  0.683  0.317  0.000  0.000  0.000
  0.000  0.000  0.665  0.002  0.333
    occupations:
  0.981  0.000  0.000  0.000  0.000
  0.000  0.997  0.000  0.000  0.000
  0.000  0.000  0.997  0.000  0.000
  0.000  0.000  0.000  0.981  0.000
  0.000  0.000  0.000  0.000  0.997
atomic mag. moment =    -1.198738
atom    9   Tr[ns(na)] (up, down, total) =   2.81114  2.81222  5.62336
   spin  1
    eigenvalues: 
  0.937  0.937  0.938
    eigenvectors:
  0.669  0.000  0.331
  0.165  0.500  0.335
  0.165  0.500  0.335
    occupations:
  0.937  0.000  0.000
  0.000  0.937  0.000
  0.000  0.000  0.937
   spin  2
    eigenvalues: 
  0.937  0.937  0.939
    eigenvectors:
  0.000  0.293  0.707
  0.500  0.354  0.146
  0.500  0.354  0.146
    occupations:
  0.938  0.000  0.000
  0.000  0.937  0.000
  0.000  0.000  0.937
atomic mag. moment =    -0.001079
atom   10   Tr[ns(na)] (up, down, total) =   2.81114  2.81117  5.62231
   spin  1
    eigenvalues: 
  0.937  0.937  0.938
    eigenvectors:
  0.425  0.242  0.333
  0.565  0.101  0.333
  0.010  0.657  0.333
    occupations:
  0.937  0.000  0.000
  0.000  0.937  0.000
  0.000  0.000  0.937
   spin  2
    eigenvalues: 
  0.937  0.937  0.938
    eigenvectors:
  0.405  0.262  0.333
  0.579  0.087  0.333
  0.016  0.651  0.333
    occupations:
  0.937  0.000  0.000
  0.000  0.937  0.000
  0.000  0.000  0.937
atomic mag. moment =    -0.000022
atom   11   Tr[ns(na)] (up, down, total) =   2.81114  2.81222  5.62336
   spin  1
    eigenvalues: 
  0.937  0.937  0.938
    eigenvectors:
  0.165  0.500  0.335
  0.165  0.500  0.335
  0.669  0.000  0.331
    occupations:
  0.937  0.000  0.000
  0.000  0.937  0.000
  0.000  0.000  0.937
   spin  2
    eigenvalues: 
  0.937  0.937  0.939
    eigenvectors:
  0.500  0.354  0.146
  0.500  0.354  0.146
  0.000  0.293  0.707
    occupations:
  0.937  0.000  0.000
  0.000  0.937  0.000
  0.000  0.000  0.938
atomic mag. moment =    -0.001079
atom   12   Tr[ns(na)] (up, down, total) =   2.81114  2.81222  5.62336
   spin  1
    eigenvalues: 
  0.937  0.937  0.938
    eigenvectors:
  0.165  0.500  0.335
  0.669  0.000  0.331
  0.165  0.500  0.335
    occupations:
  0.937  0.000  0.000
  0.000  0.937  0.000
  0.000  0.000  0.937
   spin  2
    eigenvalues: 
  0.937  0.937  0.939
    eigenvectors:
  0.500  0.354  0.146
  0.000  0.293  0.707
  0.500  0.354  0.146
    occupations:
  0.937  0.000  0.000
  0.000  0.938  0.000
  0.000  0.000  0.937
atomic mag. moment =    -0.001079
atom   13   Tr[ns(na)] (up, down, total) =   2.81114  2.81222  5.62336
   spin  1
    eigenvalues: 
  0.937  0.937  0.938
    eigenvectors:
  0.165  0.500  0.335
  0.165  0.500  0.335
  0.669  0.000  0.331
    occupations:
  0.937  0.000  0.000
  0.000  0.937  0.000
  0.000  0.000  0.937
   spin  2
    eigenvalues: 
  0.937  0.937  0.939
    eigenvectors:
  0.500  0.354  0.146
  0.500  0.354  0.146
  0.000  0.293  0.707
    occupations:
  0.937  0.000  0.000
  0.000  0.937  0.000
  0.000  0.000  0.938
atomic mag. moment =    -0.001079
atom   14   Tr[ns(na)] (up, down, total) =   2.81114  2.81222  5.62336
   spin  1
    eigenvalues: 
  0.937  0.937  0.938
    eigenvectors:
  0.165  0.500  0.335
  0.669  0.000  0.331
  0.165  0.500  0.335
    occupations:
  0.937  0.000  0.000
  0.000  0.937  0.000
  0.000  0.000  0.937
   spin  2
    eigenvalues: 
  0.937  0.937  0.939
    eigenvectors:
  0.500  0.354  0.146
  0.000  0.293  0.707
  0.500  0.354  0.146
    occupations:
  0.937  0.000  0.000
  0.000  0.938  0.000
  0.000  0.000  0.937
atomic mag. moment =    -0.001079
atom   15   Tr[ns(na)] (up, down, total) =   2.81114  2.81117  5.62231
   spin  1
    eigenvalues: 
  0.937  0.937  0.938
    eigenvectors:
  0.448  0.219  0.333
  0.547  0.120  0.333
  0.005  0.662  0.333
    occupations:
  0.937  0.000  0.000
  0.000  0.937  0.000
  0.000  0.000  0.937
   spin  2
    eigenvalues: 
  0.937  0.937  0.938
    eigenvectors:
  0.439  0.227  0.333
  0.554  0.113  0.333
  0.007  0.660  0.333
    occupations:
  0.937  0.000  0.000
  0.000  0.937  0.000
  0.000  0.000  0.937
atomic mag. moment =    -0.000022
atom   16   Tr[ns(na)] (up, down, total) =   2.81114  2.81222  5.62336
   spin  1
    eigenvalues: 
  0.937  0.937  0.938
    eigenvectors:
  0.669  0.000  0.331
  0.165  0.500  0.335
  0.165  0.500  0.335
    occupations:
  0.937  0.000  0.000
  0.000  0.937  0.000
  0.000  0.000  0.937
   spin  2
    eigenvalues: 
  0.937  0.937  0.939
    eigenvectors:
  0.000  0.293  0.707
  0.500  0.354  0.146
  0.500  0.354  0.146
    occupations:
  0.938  0.000  0.000
  0.000  0.937  0.000
  0.000  0.000  0.937
atomic mag. moment =    -0.001079
N of occupied +U levels = 114.6216308
 --- exit write_ns ---

     total cpu time spent up to now is       71.2 secs

     total energy              =    -941.97127195 Ry
     Harris-Foulkes estimate   =    -941.97135064 Ry
     estimated scf accuracy    <       0.00017922 Ry

     total magnetization       =     0.00 Bohr mag/cell
     absolute magnetization    =    12.30 Bohr mag/cell

     iteration #  2     ecut=    30.00 Ry     beta=0.30
     Davidson diagonalization with overlap
     ethr =  1.40E-07,  avg # of iterations =  2.0

     total cpu time spent up to now is      109.3 secs

     total energy              =    -941.97129867 Ry
     Harris-Foulkes estimate   =    -941.97135842 Ry
     estimated scf accuracy    <       0.00024724 Ry

     total magnetization       =     0.00 Bohr mag/cell
     absolute magnetization    =    12.29 Bohr mag/cell

     iteration #  3     ecut=    30.00 Ry     beta=0.30
     Davidson diagonalization with overlap
     ethr =  1.40E-07,  avg # of iterations =  1.9

     total cpu time spent up to now is      146.1 secs

     total energy              =    -941.97132843 Ry
     Harris-Foulkes estimate   =    -941.97132875 Ry
     estimated scf accuracy    <       0.00000329 Ry

     total magnetization       =     0.00 Bohr mag/cell
     absolute magnetization    =    12.29 Bohr mag/cell

     iteration #  4     ecut=    30.00 Ry     beta=0.30
     Davidson diagonalization with overlap
     ethr =  2.57E-09,  avg # of iterations =  2.0

     total cpu time spent up to now is      183.8 secs

     total energy              =    -941.97132910 Ry
     Harris-Foulkes estimate   =    -941.97132886 Ry
     estimated scf accuracy    <       0.00000097 Ry

     total magnetization       =     0.00 Bohr mag/cell
     absolute magnetization    =    12.30 Bohr mag/cell

     iteration #  5     ecut=    30.00 Ry     beta=0.30
     Davidson diagonalization with overlap
     ethr =  7.61E-10,  avg # of iterations =  1.2

     total cpu time spent up to now is      220.2 secs

     total energy              =    -941.97132928 Ry
     Harris-Foulkes estimate   =    -941.97132920 Ry
     estimated scf accuracy    <       0.00000056 Ry

     total magnetization       =     0.00 Bohr mag/cell
     absolute magnetization    =    12.30 Bohr mag/cell

     iteration #  6     ecut=    30.00 Ry     beta=0.30
     Davidson diagonalization with overlap
     ethr =  4.39E-10,  avg # of iterations =  1.5

     total cpu time spent up to now is      257.1 secs

     total energy              =    -941.97132937 Ry
     Harris-Foulkes estimate   =    -941.97132935 Ry
     estimated scf accuracy    <       0.00000004 Ry

     total magnetization       =     0.00 Bohr mag/cell
     absolute magnetization    =    12.30 Bohr mag/cell

     iteration #  7     ecut=    30.00 Ry     beta=0.30
     Davidson diagonalization with overlap
     ethr =  2.90E-11,  avg # of iterations =  1.7

     total cpu time spent up to now is      293.6 secs

     End of self-consistent calculation
 --- enter write_ns ---
 LDA+U parameters:
U( 1)     =  0.00000000
alpha( 1) =  0.07000000
U( 2)     =  0.00000000
alpha( 2) =  0.00000000
U( 3)     =  0.00000000
alpha( 3) =  0.00000000
U( 4)     =  0.00000000
alpha( 4) =  0.00000000
atom    1   Tr[ns(na)] (up, down, total) =   4.95243  3.74579  8.69822
   spin  1
    eigenvalues: 
  0.980  0.980  0.997  0.997  0.997
    eigenvectors:
  0.579  0.421  0.000  0.000  0.000
  0.000  0.000  0.116  0.550  0.333
  0.000  0.000  0.222  0.444  0.333
  0.421  0.579  0.000  0.000  0.000
  0.000  0.000  0.661  0.006  0.333
    occupations:
  0.980  0.000  0.000  0.000  0.000
  0.000  0.997  0.000  0.000  0.000
  0.000  0.000  0.997  0.000  0.000
  0.000  0.000  0.000  0.980  0.000
  0.000  0.000  0.000  0.000  0.997
   spin  2
    eigenvalues: 
  0.380  0.380  0.995  0.995  0.995
    eigenvectors:
  0.135  0.865  0.000  0.000  0.000
  0.000  0.000  0.159  0.508  0.333
  0.000  0.000  0.175  0.492  0.333
  0.865  0.135  0.000  0.000  0.000
  0.000  0.000  0.667  0.000  0.333
    occupations:
  0.380  0.000  0.000  0.000  0.001
  0.000  0.995  0.000  0.001  0.000
  0.000  0.000  0.995 -0.001  0.000
  0.000  0.001 -0.001  0.380  0.000
  0.001  0.000  0.000  0.000  0.995
atomic mag. moment =     1.206638
atom    2   Tr[ns(na)] (up, down, total) =   4.95240  3.75372  8.70612
   spin  1
    eigenvalues: 
  0.980  0.980  0.997  0.997  0.997
    eigenvectors:
  0.750  0.250  0.000  0.000  0.000
  0.000  0.000  0.500  0.177  0.323
  0.000  0.000  0.000  0.645  0.355
  0.250  0.750  0.000  0.000  0.000
  0.000  0.000  0.500  0.177  0.323
    occupations:
  0.980  0.000  0.000  0.000  0.000
  0.000  0.997  0.000  0.000  0.000
  0.000  0.000  0.997  0.000  0.000
  0.000  0.000  0.000  0.980  0.000
  0.000  0.000  0.000  0.000  0.997
   spin  2
    eigenvalues: 
  0.384  0.384  0.995  0.995  0.996
    eigenvectors:
  0.750  0.250  0.000  0.000  0.000
  0.000  0.000  0.500  0.237  0.263
  0.000  0.000  0.000  0.526  0.474
  0.250  0.750  0.000  0.000  0.000
  0.000  0.000  0.500  0.237  0.263
    occupations:
  0.384  0.001  0.001  0.000  0.001
  0.001  0.995  0.000  0.001  0.000
  0.001  0.000  0.995 -0.001  0.000
  0.000  0.001 -0.001  0.384  0.000
  0.001  0.000  0.000  0.000  0.995
atomic mag. moment =     1.198680
atom    3   Tr[ns(na)] (up, down, total) =   4.95240  3.75372  8.70612
   spin  1
    eigenvalues: 
  0.980  0.980  0.997  0.997  0.997
    eigenvectors:
  0.750  0.250  0.000  0.000  0.000
  0.000  0.000  0.000  0.645  0.355
  0.000  0.000  0.500  0.177  0.323
  0.250  0.750  0.000  0.000  0.000
  0.000  0.000  0.500  0.177  0.323
    occupations:
  0.980  0.000  0.000  0.000  0.000
  0.000  0.997  0.000  0.000  0.000
  0.000  0.000  0.997  0.000  0.000
  0.000  0.000  0.000  0.980  0.000
  0.000  0.000  0.000  0.000  0.997
   spin  2
    eigenvalues: 
  0.384  0.384  0.995  0.995  0.996
    eigenvectors:
  0.750  0.250  0.000  0.000  0.000
  0.000  0.000  0.000  0.526  0.474
  0.000  0.000  0.500  0.237  0.263
  0.250  0.750  0.000  0.000  0.000
  0.000  0.000  0.500  0.237  0.263
    occupations:
  0.384  0.001  0.001  0.000  0.001
  0.001  0.995  0.000  0.001  0.000
  0.001  0.000  0.995 -0.001  0.000
  0.000  0.001 -0.001  0.384  0.000
  0.001  0.000  0.000  0.000  0.995
atomic mag. moment =     1.198680
atom    4   Tr[ns(na)] (up, down, total) =   4.95240  3.75372  8.70612
   spin  1
    eigenvalues: 
  0.980  0.980  0.997  0.997  0.997
    eigenvectors:
  0.000  1.000  0.000  0.000  0.000
  0.000  0.000  0.500  0.177  0.323
  0.000  0.000  0.500  0.177  0.323
  1.000  0.000  0.000  0.000  0.000
  0.000  0.000  0.000  0.645  0.355
    occupations:
  0.980  0.000  0.000  0.000  0.000
  0.000  0.997  0.000  0.000  0.000
  0.000  0.000  0.997  0.000  0.000
  0.000  0.000  0.000  0.980  0.000
  0.000  0.000  0.000  0.000  0.997
   spin  2
    eigenvalues: 
  0.384  0.384  0.995  0.995  0.996
    eigenvectors:
  0.000  1.000  0.000  0.000  0.000
  0.000  0.000  0.500  0.237  0.263
  0.000  0.000  0.500  0.237  0.263
  1.000  0.000  0.000  0.000  0.000
  0.000  0.000  0.000  0.526  0.474
    occupations:
  0.384  0.001  0.001  0.000  0.001
  0.001  0.995  0.000  0.001  0.000
  0.001  0.000  0.995 -0.001  0.000
  0.000  0.001 -0.001  0.384  0.000
  0.001  0.000  0.000  0.000  0.995
atomic mag. moment =     1.198680
atom    5   Tr[ns(na)] (up, down, total) =   3.75370  4.95242  8.70612
   spin  1
    eigenvalues: 
  0.384  0.384  0.995  0.995  0.995
    eigenvectors:
  1.000  0.000  0.000  0.000  0.000
  0.000  0.000  0.500  0.173  0.327
  0.000  0.000  0.500  0.173  0.327
  0.000  1.000  0.000  0.000  0.000
  0.000  0.000  0.000  0.655  0.345
    occupations:
  0.384  0.001  0.001  0.000  0.001
  0.001  0.995  0.000  0.001  0.000
  0.001  0.000  0.995 -0.001  0.000
  0.000  0.001 -0.001  0.384  0.000
  0.001  0.000  0.000  0.000  0.995
   spin  2
    eigenvalues: 
  0.980  0.980  0.997  0.997  0.997
    eigenvectors:
  0.000  1.000  0.000  0.000  0.000
  0.000  0.000  0.500  0.292  0.208
  0.000  0.000  0.500  0.292  0.208
  1.000  0.000  0.000  0.000  0.000
  0.000  0.000  0.000  0.417  0.583
    occupations:
  0.980  0.000  0.000  0.000  0.000
  0.000  0.997  0.000  0.000  0.000
  0.000  0.000  0.997  0.000  0.000
  0.000  0.000  0.000  0.980  0.000
  0.000  0.000  0.000  0.000  0.997
atomic mag. moment =    -1.198725
atom    6   Tr[ns(na)] (up, down, total) =   3.75370  4.95242  8.70612
   spin  1
    eigenvalues: 
  0.384  0.384  0.995  0.995  0.995
    eigenvectors:
  0.250  0.750  0.000  0.000  0.000
  0.000  0.000  0.000  0.655  0.345
  0.000  0.000  0.500  0.173  0.327
  0.750  0.250  0.000  0.000  0.000
  0.000  0.000  0.500  0.173  0.327
    occupations:
  0.384  0.001  0.001  0.000  0.001
  0.001  0.995  0.000  0.001  0.000
  0.001  0.000  0.995 -0.001  0.000
  0.000  0.001 -0.001  0.384  0.000
  0.001  0.000  0.000  0.000  0.995
   spin  2
    eigenvalues: 
  0.980  0.980  0.997  0.997  0.997
    eigenvectors:
  0.750  0.250  0.000  0.000  0.000
  0.000  0.000  0.000  0.417  0.583
  0.000  0.000  0.500  0.292  0.208
  0.250  0.750  0.000  0.000  0.000
  0.000  0.000  0.500  0.292  0.208
    occupations:
  0.980  0.000  0.000  0.000  0.000
  0.000  0.997  0.000  0.000  0.000
  0.000  0.000  0.997  0.000  0.000
  0.000  0.000  0.000  0.980  0.000
  0.000  0.000  0.000  0.000  0.997
atomic mag. moment =    -1.198725
atom    7   Tr[ns(na)] (up, down, total) =   3.75370  4.95242  8.70612
   spin  1
    eigenvalues: 
  0.384  0.384  0.995  0.995  0.995
    eigenvectors:
  0.250  0.750  0.000  0.000  0.000
  0.000  0.000  0.500  0.173  0.327
  0.000  0.000  0.000  0.655  0.345
  0.750  0.250  0.000  0.000  0.000
  0.000  0.000  0.500  0.173  0.327
    occupations:
  0.384  0.001  0.001  0.000  0.001
  0.001  0.995  0.000  0.001  0.000
  0.001  0.000  0.995 -0.001  0.000
  0.000  0.001 -0.001  0.384  0.000
  0.001  0.000  0.000  0.000  0.995
   spin  2
    eigenvalues: 
  0.980  0.980  0.997  0.997  0.997
    eigenvectors:
  0.750  0.250  0.000  0.000  0.000
  0.000  0.000  0.500  0.292  0.208
  0.000  0.000  0.000  0.417  0.583
  0.250  0.750  0.000  0.000  0.000
  0.000  0.000  0.500  0.292  0.208
    occupations:
  0.980  0.000  0.000  0.000  0.000
  0.000  0.997  0.000  0.000  0.000
  0.000  0.000  0.997  0.000  0.000
  0.000  0.000  0.000  0.980  0.000
  0.000  0.000  0.000  0.000  0.997
atomic mag. moment =    -1.198725
atom    8   Tr[ns(na)] (up, down, total) =   3.75240  4.95313  8.70553
   spin  1
    eigenvalues: 
  0.383  0.383  0.995  0.995  0.995
    eigenvectors:
  0.186  0.814  0.000  0.000  0.000
  0.000  0.000  0.026  0.641  0.333
  0.000  0.000  0.375  0.291  0.333
  0.814  0.186  0.000  0.000  0.000
  0.000  0.000  0.599  0.068  0.333
    occupations:
  0.383  0.001  0.001  0.000  0.001
  0.001  0.995  0.000  0.001  0.000
  0.001  0.000  0.995 -0.001  0.000
  0.000  0.001 -0.001  0.383  0.000
  0.001  0.000  0.000  0.000  0.995
   spin  2
    eigenvalues: 
  0.981  0.981  0.997  0.997  0.997
    eigenvectors:
  0.214  0.786  0.000  0.000  0.000
  0.000  0.000  0.110  0.557  0.333
  0.000  0.000  0.231  0.436  0.333
  0.786  0.214  0.000  0.000  0.000
  0.000  0.000  0.659  0.007  0.333
    occupations:
  0.981  0.000  0.000  0.000  0.000
  0.000  0.997  0.000  0.000  0.000
  0.000  0.000  0.997  0.000  0.000
  0.000  0.000  0.000  0.981  0.000
  0.000  0.000  0.000  0.000  0.997
atomic mag. moment =    -1.200736
atom    9   Tr[ns(na)] (up, down, total) =   2.81111  2.81168  5.62278
   spin  1
    eigenvalues: 
  0.937  0.937  0.938
    eigenvectors:
  0.000  0.652  0.348
  0.500  0.174  0.326
  0.500  0.174  0.326
    occupations:
  0.937  0.000  0.000
  0.000  0.937  0.000
  0.000  0.000  0.937
   spin  2
    eigenvalues: 
  0.937  0.937  0.938
    eigenvectors:
  0.000  0.465  0.535
  0.500  0.267  0.233
  0.500  0.267  0.233
    occupations:
  0.938  0.000  0.000
  0.000  0.937  0.000
  0.000  0.000  0.937
atomic mag. moment =    -0.000571
atom   10   Tr[ns(na)] (up, down, total) =   2.81113  2.81114  5.62228
   spin  1
    eigenvalues: 
  0.937  0.937  0.938
    eigenvectors:
  0.449  0.217  0.333
  0.546  0.121  0.333
  0.005  0.662  0.333
    occupations:
  0.937  0.000  0.000
  0.000  0.937  0.000
  0.000  0.000  0.937
   spin  2
    eigenvalues: 
  0.937  0.937  0.938
    eigenvectors:
  0.404  0.262  0.333
  0.580  0.087  0.333
  0.016  0.651  0.333
    occupations:
  0.937  0.000  0.000
  0.000  0.937  0.000
  0.000  0.000  0.937
atomic mag. moment =    -0.000010
atom   11   Tr[ns(na)] (up, down, total) =   2.81111  2.81168  5.62278
   spin  1
    eigenvalues: 
  0.937  0.937  0.938
    eigenvectors:
  0.500  0.174  0.326
  0.500  0.174  0.326
  0.000  0.652  0.348
    occupations:
  0.937  0.000  0.000
  0.000  0.937  0.000
  0.000  0.000  0.937
   spin  2
    eigenvalues: 
  0.937  0.937  0.938
    eigenvectors:
  0.500  0.267  0.233
  0.500  0.267  0.233
  0.000  0.465  0.535
    occupations:
  0.937  0.000  0.000
  0.000  0.937  0.000
  0.000  0.000  0.938
atomic mag. moment =    -0.000571
atom   12   Tr[ns(na)] (up, down, total) =   2.81111  2.81168  5.62278
   spin  1
    eigenvalues: 
  0.937  0.937  0.938
    eigenvectors:
  0.500  0.174  0.326
  0.000  0.652  0.348
  0.500  0.174  0.326
    occupations:
  0.937  0.000  0.000
  0.000  0.937  0.000
  0.000  0.000  0.937
   spin  2
    eigenvalues: 
  0.937  0.937  0.938
    eigenvectors:
  0.500  0.267  0.233
  0.000  0.465  0.535
  0.500  0.267  0.233
    occupations:
  0.937  0.000  0.000
  0.000  0.938  0.000
  0.000  0.000  0.937
atomic mag. moment =    -0.000571
atom   13   Tr[ns(na)] (up, down, total) =   2.81111  2.81168  5.62278
   spin  1
    eigenvalues: 
  0.937  0.937  0.938
    eigenvectors:
  0.500  0.174  0.326
  0.500  0.174  0.326
  0.000  0.652  0.348
    occupations:
  0.937  0.000  0.000
  0.000  0.937  0.000
  0.000  0.000  0.937
   spin  2
    eigenvalues: 
  0.937  0.937  0.938
    eigenvectors:
  0.500  0.267  0.233
  0.500  0.267  0.233
  0.000  0.465  0.535
    occupations:
  0.937  0.000  0.000
  0.000  0.937  0.000
  0.000  0.000  0.938
atomic mag. moment =    -0.000571
atom   14   Tr[ns(na)] (up, down, total) =   2.81111  2.81168  5.62278
   spin  1
    eigenvalues: 
  0.937  0.937  0.938
    eigenvectors:
  0.500  0.174  0.326
  0.000  0.652  0.348
  0.500  0.174  0.326
    occupations:
  0.937  0.000  0.000
  0.000  0.937  0.000
  0.000  0.000  0.937
   spin  2
    eigenvalues: 
  0.937  0.937  0.938
    eigenvectors:
  0.500  0.267  0.233
  0.000  0.465  0.535
  0.500  0.267  0.233
    occupations:
  0.937  0.000  0.000
  0.000  0.938  0.000
  0.000  0.000  0.937
atomic mag. moment =    -0.000571
atom   15   Tr[ns(na)] (up, down, total) =   2.81113  2.81114  5.62228
   spin  1
    eigenvalues: 
  0.937  0.937  0.938
    eigenvectors:
  0.446  0.221  0.333
  0.549  0.118  0.333
  0.005  0.661  0.333
    occupations:
  0.937  0.000  0.000
  0.000  0.937  0.000
  0.000  0.000  0.937
   spin  2
    eigenvalues: 
  0.937  0.937  0.938
    eigenvectors:
  0.454  0.213  0.333
  0.542  0.125  0.333
  0.004  0.663  0.333
    occupations:
  0.937  0.000  0.000
  0.000  0.937  0.000
  0.000  0.000  0.937
atomic mag. moment =    -0.000010
atom   16   Tr[ns(na)] (up, down, total) =   2.81111  2.81168  5.62278
   spin  1
    eigenvalues: 
  0.937  0.937  0.938
    eigenvectors:
  0.000  0.652  0.348
  0.500  0.174  0.326
  0.500  0.174  0.326
    occupations:
  0.937  0.000  0.000
  0.000  0.937  0.000
  0.000  0.000  0.937
   spin  2
    eigenvalues: 
  0.937  0.937  0.938
    eigenvectors:
  0.000  0.465  0.535
  0.500  0.267  0.233
  0.500  0.267  0.233
    occupations:
  0.938  0.000  0.000
  0.000  0.937  0.000
  0.000  0.000  0.937
atomic mag. moment =    -0.000571
N of occupied +U levels = 114.6217292
 --- exit write_ns ---

 ------ SPIN UP ------------


          k = 0.0000 0.0000 0.0000 (  2733 PWs)   bands (ev):

    -8.0762  -6.6852  -6.6845  -6.6843  -6.6843  -6.6165  -6.6118  -6.6118
     4.0286   4.0345   4.0345   4.0387   5.3296   5.3297   5.3297   6.5267
     6.5267   6.5338   6.5392   6.5392   6.5660   6.5710   6.5710   7.9549
     7.9549   7.9553   7.9589   7.9593   7.9593   8.8396   8.8396   8.8404
     9.2579   9.2579   9.2651   9.5653   9.5653   9.7007   9.8795   9.8795
     9.9452   9.9476   9.9476  10.2313  10.2313  10.2348  10.4876  10.4904
    10.4904  10.6032  10.6032  10.6038  10.9139  10.9139  11.0418  11.0426
    11.0426  11.1817  11.2655  11.2663  11.2663  11.3853  11.3853  11.3856
    13.5469  13.5469  13.6060  13.6063  13.6063  13.6899  13.6906  13.6906
    13.7603  17.7975  17.7998  17.7998  17.8010

          k =-0.1250 0.1250 0.1250 (  2743 PWs)   bands (ev):

    -7.9006  -6.9237  -6.6786  -6.6776  -6.6773  -6.6299  -6.6258  -6.6257
     4.3484   4.3521   4.3561   4.6079   5.3450   5.3453   5.3472   6.4375
     6.4462   6.4468   6.6351   6.6767   6.6792   6.6991   6.7428   7.1976
     7.1983   7.2364   7.6887   7.6888   7.7015   7.9687   8.4023   8.4099
     9.2870   9.3428   9.3442   9.6834   9.8291   9.9659  10.0455  10.0470
    10.1146  10.2212  10.2244  10.2521  10.3748  10.5217  10.5428  10.5442
    10.5534  10.6382  10.6893  10.6913  10.8995  10.9953  11.1170  11.1173
    11.1199  11.1801  11.2606  11.2607  11.2822  11.3156  11.3442  11.3450
    13.2144  13.2808  13.2809  13.2945  13.3848  13.4225  13.4226  13.4669
    14.7676  17.5945  18.6774  18.6788  18.6791

          k = 0.2500-0.2500-0.2500 (  2764 PWs)   bands (ev):

    -7.4431  -7.4428  -6.6617  -6.6575  -6.6572  -6.6560  -6.6530  -6.6508
     5.0515   5.0564   5.0662   5.0686   5.0732   5.0754   6.0942   6.0970
     6.3248   6.3314   6.3898   6.3960   6.4648   6.4701   6.8560   6.8633
     7.0145   7.0190   7.3136   7.3153   7.4870   7.4894   7.6383   7.6399
     9.6345   9.6444   9.8192   9.8274   9.8894   9.8954  10.0246  10.0315
    10.1609  10.1673  10.2234  10.2284  10.5350  10.5367  10.6441  10.6446
    10.6610  10.6615  10.8717  10.8724  10.9654  10.9658  11.2455  11.2460
    11.2538  11.2549  11.2988  11.2995  11.3313  11.3323  11.4336  11.4345
    13.0395  13.0409  13.0460  13.0473  13.0539  13.0557  13.0645  13.0661
    16.4830  16.4843  19.6498  19.6536  19.7131

          k = 0.0000 0.0000 0.2500 (  2706 PWs)   bands (ev):

    -7.8473  -6.8018  -6.7495  -6.7489  -6.7488  -6.7476  -6.5622  -6.5585
     4.4910   4.4944   4.4962   4.4998   5.2335   5.5211   5.5212   6.5294
     6.5332   6.5526   6.5873   6.5960   6.6217   6.6288   6.6826   7.0634
     7.0635   7.1685   7.1686   7.4623   7.9714   7.9765   8.6525   8.6615
     8.9621   9.5396   9.6326   9.6341   9.8158   9.9813  10.0587  10.0600
    10.0990  10.1144  10.1888  10.2801  10.2823  10.3994  10.4122  10.5467
    10.5474  10.6143  10.6161  10.6612  10.9123  11.0095  11.0099  11.0511
    11.0572  11.1703  11.2429  11.2947  11.2955  11.3475  11.3486  11.3797
    12.8783  13.0392  13.0402  13.0434  13.5242  13.5676  13.6448  13.6457
    15.2145  18.5673  18.5682  18.5683  18.5696

          k = 0.3750-0.3750-0.1250 (  2734 PWs)   bands (ev):

    -7.4975  -7.1668  -6.9609  -6.7653  -6.7651  -6.5900  -6.5513  -6.5477
     4.9649   4.9680   4.9794   5.3068   5.4260   5.4994   5.5203   6.1767
     6.2113   6.2379   6.2670   6.5894   6.5954   6.7468   6.7510   6.8630
     6.8911   6.9233   6.9948   7.3581   7.3774   7.7221   7.7602   8.0155
     9.4610   9.6558   9.8267   9.8983   9.9584   9.9727  10.0396  10.1413
    10.1440  10.1705  10.2135  10.2904  10.3163  10.3240  10.4791  10.5129
    10.7333  10.7395  10.7426  10.7554  10.8785  10.9064  11.0401  11.0782
    11.1679  11.1953  11.2256  11.2573  11.3321  11.3360  11.3540  11.4104
    12.7391  12.7830  12.8348  12.9313  13.2360  13.2591  13.3648  13.4337
    16.6953  17.6030  18.6712  19.3633  19.3650

          k = 0.2500-0.2500 0.0000 (  2742 PWs)   bands (ev):

    -7.6356  -7.0120  -7.0111  -6.7142  -6.7131  -6.5981  -6.5958  -6.5398
     4.7720   4.7782   5.0689   5.0699   5.2631   5.2635   5.7010   5.9657
     6.2883   6.3047   6.5296   6.7213   6.7470   6.7496   6.9160   6.9175
     6.9313   7.1589   7.1626   7.1895   7.4507   7.4509   7.6326   8.1256
     9.6615   9.6646   9.7946   9.8532   9.9059   9.9125  10.0462  10.1145
    10.1372  10.2281  10.2313  10.2321  10.2349  10.3623  10.3648  10.5173
    10.7194  10.7520  10.7520  10.8285  10.9038  11.0964  11.0964  11.1147
    11.2092  11.2096  11.2323  11.2436  11.2790  11.3454  11.4057  11.4061
    13.0427  13.0473  13.0575  13.0591  13.1144  13.1517  13.1526  13.2841
    16.0085  18.0613  18.0629  19.3771  19.3798

          k = 0.0000 0.0000-0.5000 (  2762 PWs)   bands (ev):

    -7.3062  -7.3045  -6.8120  -6.8116  -6.8115  -6.8090  -6.5086  -6.5043
     5.0197   5.0240   5.0267   5.0312   5.7693   5.7710   6.0994   6.1035
     6.1053   6.1089   6.4040   6.4072   6.6515   6.6571   6.6837   6.6917
     6.7227   6.7282   6.7291   6.7339   8.1498   8.1523   8.1609   8.1629
     9.2501   9.2615   9.9508   9.9538  10.0311  10.0338  10.0463  10.0494
    10.0504  10.0546  10.1704  10.1767  10.3505  10.3570  10.4968  10.5011
    10.5195  10.5209  10.5830  10.5879  10.9122  10.9132  11.0053  11.0068
    11.1487  11.1497  11.2270  11.2280  11.3365  11.3376  11.3411  11.3420
    12.4620  12.4630  12.7201  12.7210  13.5179  13.5186  13.6178  13.6187
    17.6668  17.6690  19.2525  19.2528  19.2533

          k = 0.0000 0.2500-0.5000 (  2740 PWs)   bands (ev):

    -7.1472  -7.1468  -7.1466  -7.1440  -6.5752  -6.5720  -6.5698  -6.5676
     5.2834   5.2837   5.2850   5.3298   5.3831   5.5414   5.5451   5.6541
     6.2268   6.2544   6.2573   6.2860   6.6214   6.6240   6.6373   6.7633
     6.9048   7.2696   7.2702   7.4652   7.4797   7.5070   7.5088   7.5581
     9.7163   9.7433   9.7442   9.8108   9.9885  10.0391  10.0397  10.0740
    10.1207  10.2743  10.2895  10.2942  10.3470  10.3478  10.4006  10.4664
    10.6179  10.6645  10.6652  10.6916  10.9485  10.9486  10.9692  10.9909
    11.1742  11.1858  11.1865  11.2803  11.2957  11.2998  11.3663  11.3665
    12.7747  12.8892  12.8900  13.0033  13.1552  13.1989  13.2001  13.2443
    18.0176  18.0366  18.0380  18.0583  20.8583

          k = 0.1250 0.1250 0.1250 (  2743 PWs)   bands (ev):

    -7.9007  -6.9240  -6.6794  -6.6779  -6.6779  -6.6289  -6.6252  -6.6252
     4.3468   4.3514   4.3514   4.6130   5.3438   5.3441   5.3441   6.4806
     6.4837   6.4837   6.6229   6.6281   6.6281   6.7010   6.7010   7.2134
     7.2149   7.2149   7.7065   7.7065   7.7065   7.9750   8.4537   8.4537
     9.2677   9.2677   9.2707   9.6242   9.6242  10.0066  10.0664  10.0700
    10.0700  10.2783  10.2783  10.2804  10.6058  10.6058  10.6064  10.6236
    10.6236  10.7250  10.7260  10.7260  10.9160  10.9160  10.9421  10.9429
    10.9429  11.0347  11.2578  11.2585  11.2585  11.3956  11.3956  11.3961
    13.3352  13.3352  13.3512  13.3517  13.3517  13.3584  13.3595  13.3595
    14.7679  17.5960  18.6759  18.6759  18.6760

          k =-0.2500-0.2500-0.2500 (  2764 PWs)   bands (ev):

    -7.4476  -7.4386  -6.6679  -6.6632  -6.6632  -6.6475  -6.6470  -6.6470
     5.0114   5.0159   5.0159   5.1121   5.1127   5.1127   6.0826   6.1189
     6.2621   6.2667   6.2667   6.6910   6.6910   6.6912   6.7510   6.7566
     6.7566   6.9851   6.9851   7.4477   7.4477   7.4477   7.8647   7.8647
     9.4964   9.4964   9.5010   9.6802   9.6802  10.1215  10.1223  10.1266
    10.1266  10.4507  10.4507  10.4509  10.5111  10.5112  10.5112  10.7282
    10.7282  10.8451  10.8451  10.8451  10.8724  11.0577  11.0577  11.0581
    11.2460  11.2468  11.2468  11.3013  11.3013  11.4033  11.4033  11.4039
    13.0408  13.0418  13.0418  13.0580  13.0580  13.0722  13.0735  13.0735
    16.4101  16.5614  19.6258  19.6331  19.6331

          k =-0.3750-0.1250-0.3750 (  2734 PWs)   bands (ev):

    -7.4976  -7.1670  -6.9610  -6.7653  -6.7651  -6.5899  -6.5511  -6.5476
     4.9648   4.9740   4.9756   5.2855   5.4399   5.4987   5.5010   6.2229
     6.2300   6.2307   6.2649   6.6563   6.6685   6.6705   6.6974   6.7004
     6.8327   7.0805   7.0825   7.2710   7.3820   7.7555   7.7618   8.0519
     9.3597   9.5495   9.7634   9.7679   9.7895  10.0631  10.0977  10.1008
    10.2887  10.2906  10.4224  10.4251  10.4438  10.5549  10.5569  10.5630
    10.5709  10.6518  10.6525  10.6525  10.8433  10.8815  10.8819  10.9609
    11.0720  11.2437  11.2754  11.3023  11.3023  11.3610  11.3616  11.4239
    12.6943  12.8403  12.8848  12.8860  13.2817  13.3362  13.3434  13.3446
    16.6947  17.6057  18.6707  19.3604  19.3609

          k = 0.3750-0.1250 0.3750 (  2734 PWs)   bands (ev):

    -7.4974  -7.1669  -6.9610  -6.7651  -6.7650  -6.5901  -6.5513  -6.5478
     4.9709   4.9747   4.9766   5.2459   5.4992   5.5039   5.5056   6.1237
     6.2312   6.2316   6.3464   6.5699   6.5716   6.6643   6.8222   6.8235
     6.8332   7.0417   7.0434   7.1597   7.5041   7.7469   7.7730   8.0009
     9.3868   9.5628   9.9445   9.9523  10.0229  10.0253  10.0470  10.0475
    10.0610  10.1809  10.2162  10.2185  10.3994  10.4448  10.4989  10.5004
    10.6607  10.6984  10.6999  10.7141  10.8974  10.9499  11.0964  11.0969
    11.2166  11.2176  11.2333  11.2704  11.2777  11.2795  11.3488  11.3497
    12.7414  12.8003  12.8821  12.8832  13.2554  13.3427  13.3438  13.3549
    16.6949  17.6040  18.6731  19.3613  19.3617

          k =-0.2500 0.0000-0.2500 (  2742 PWs)   bands (ev):

    -7.6357  -7.0121  -7.0112  -6.7145  -6.7132  -6.5976  -6.5955  -6.5399
     4.7712   4.7748   5.0777   5.0834   5.2424   5.2435   5.7025   5.9690
     6.3169   6.3188   6.5888   6.6766   6.6819   6.7936   6.8592   6.9258
     7.0157   7.1614   7.1648   7.2043   7.2058   7.4866   7.8338   8.1235
     9.5626   9.6140   9.6399   9.6450   9.7797  10.0760  10.0791  10.1347
    10.2452  10.2463  10.3096  10.3885  10.4498  10.5599  10.5617  10.5632
    10.6331  10.6656  10.6682  10.7439  10.7662  10.8216  11.0507  11.0507
    11.1058  11.2714  11.2718  11.3407  11.3705  11.3711  11.3863  11.4071
    13.0455  13.0478  13.0548  13.0565  13.0646  13.2068  13.2075  13.2368
    16.0098  18.0610  18.0635  19.3721  19.3752

 ------ SPIN DOWN ----------


          k = 0.0000 0.0000 0.0000 (  2733 PWs)   bands (ev):

    -8.0771  -6.6859  -6.6856  -6.6856  -6.6851  -6.6168  -6.6133  -6.6133
     4.0276   4.0339   4.0339   4.0381   5.3290   5.3290   5.3290   6.5254
     6.5254   6.5334   6.5363   6.5363   6.5656   6.5674   6.5674   7.9539
     7.9539   7.9546   7.9578   7.9585   7.9585   8.8371   8.8376   8.8376
     9.2569   9.2569   9.2640   9.5618   9.5618   9.6983   9.8819   9.8819
     9.9451   9.9471   9.9471  10.2317  10.2317  10.2327  10.4875  10.4895
    10.4895  10.6028  10.6028  10.6032  10.9180  10.9180  11.0447  11.0457
    11.0457  11.1851  11.2655  11.2723  11.2723  11.3887  11.3887  11.3912
    13.5489  13.5489  13.6058  13.6095  13.6095  13.6899  13.6951  13.6951
    13.7601  17.7973  17.7996  17.7996  17.8009

          k =-0.1250 0.1250 0.1250 (  2743 PWs)   bands (ev):

    -7.9015  -6.9246  -6.6790  -6.6790  -6.6788  -6.6302  -6.6274  -6.6270
     4.3475   4.3515   4.3554   4.6071   5.3443   5.3444   5.3464   6.4356
     6.4439   6.4441   6.6327   6.6758   6.6765   6.6960   6.7395   7.1963
     7.1979   7.2371   7.6883   7.6895   7.7016   7.9677   8.4021   8.4104
     9.2837   9.3413   9.3414   9.6797   9.8267   9.9631  10.0440  10.0448
    10.1125  10.2208  10.2221  10.2509  10.3761  10.5237  10.5432  10.5432
    10.5540  10.6391  10.6895  10.6906  10.9027  10.9979  11.1176  11.1197
    11.1254  11.1837  11.2638  11.2645  11.2868  11.3200  11.3456  11.3518
    13.2171  13.2831  13.2835  13.2977  13.3870  13.4252  13.4266  13.4703
    14.7673  17.5943  18.6771  18.6785  18.6792

          k = 0.2500-0.2500-0.2500 (  2764 PWs)   bands (ev):

    -7.4440  -7.4437  -6.6627  -6.6616  -6.6586  -6.6554  -6.6540  -6.6504
     5.0515   5.0520   5.0655   5.0687   5.0720   5.0768   6.0934   6.0960
     6.3236   6.3264   6.3890   6.3917   6.4641   6.4677   6.8553   6.8567
     7.0141   7.0173   7.3132   7.3185   7.4862   7.4919   7.6375   7.6433
     9.6344   9.6352   9.8190   9.8218   9.8890   9.8938  10.0244  10.0266
    10.1607  10.1626  10.2233  10.2235  10.5344  10.5367  10.6437  10.6489
    10.6607  10.6726  10.8710  10.8736  10.9647  10.9678  11.2450  11.2507
    11.2538  11.2607  11.2985  11.3058  11.3313  11.3401  11.4335  11.4386
    13.0394  13.0435  13.0459  13.0510  13.0539  13.0643  13.0682  13.0772
    16.4827  16.4839  19.6537  19.6544  19.7127

          k = 0.0000 0.0000 0.2500 (  2706 PWs)   bands (ev):

    -7.8482  -6.8032  -6.7502  -6.7502  -6.7494  -6.7487  -6.5629  -6.5600
     4.4897   4.4938   4.4955   4.4991   5.2324   5.5205   5.5205   6.5280
     6.5287   6.5489   6.5861   6.5938   6.6212   6.6243   6.6816   7.0624
     7.0626   7.1684   7.1717   7.4632   7.9704   7.9756   8.6511   8.6604
     8.9596   9.5364   9.6296   9.6300   9.8162   9.9814  10.0572  10.0575
    10.0969  10.1131  10.1870  10.2806  10.2810  10.3986  10.4127  10.5459
    10.5483  10.6149  10.6157  10.6600  10.9171  11.0105  11.0148  11.0521
    11.0616  11.1742  11.2463  11.2967  11.3017  11.3476  11.3560  11.3838
    12.8817  13.0392  13.0410  13.0541  13.5262  13.5697  13.6448  13.6514
    15.2141  18.5669  18.5679  18.5681  18.5695

          k = 0.3750-0.3750-0.1250 (  2734 PWs)   bands (ev):

    -7.4984  -7.1678  -6.9620  -6.7666  -6.7657  -6.5912  -6.5519  -6.5492
     4.9632   4.9671   4.9783   5.3066   5.4234   5.4986   5.5209   6.1756
     6.2100   6.2357   6.2647   6.5886   6.5919   6.7458   6.7487   6.8611
     6.8903   6.9236   6.9943   7.3581   7.3764   7.7207   7.7607   8.0159
     9.4588   9.6530   9.8227   9.8959   9.9569   9.9693  10.0376  10.1387
    10.1419  10.1696  10.2115  10.2893  10.3181  10.3232  10.4788  10.5121
    10.7330  10.7386  10.7449  10.7543  10.8808  10.9108  11.0443  11.0808
    11.1708  11.1984  11.2297  11.2614  11.3353  11.3395  11.3574  11.4141
    12.7426  12.7879  12.8392  12.9359  13.2383  13.2622  13.3679  13.4369
    16.6949  17.6026  18.6709  19.3628  19.3644

          k = 0.2500-0.2500 0.0000 (  2742 PWs)   bands (ev):

    -7.6365  -7.0126  -7.0124  -6.7149  -6.7145  -6.5988  -6.5972  -6.5409
     4.7711   4.7775   5.0660   5.0693   5.2628   5.2640   5.7001   5.9645
     6.2859   6.3023   6.5269   6.7201   6.7444   6.7465   6.9128   6.9147
     6.9316   7.1579   7.1612   7.1901   7.4511   7.4548   7.6326   8.1245
     9.6593   9.6604   9.7909   9.8511   9.9064   9.9084  10.0469  10.1127
    10.1341  10.2273  10.2296  10.2297  10.2316  10.3622  10.3652  10.5172
    10.7219  10.7524  10.7539  10.8281  10.9081  11.0971  11.1002  11.1185
    11.2103  11.2147  11.2369  11.2484  11.2803  11.3488  11.4072  11.4106
    13.0435  13.0495  13.0576  13.0700  13.1168  13.1523  13.1597  13.2877
    16.0081  18.0609  18.0626  19.3767  19.3795

          k = 0.0000 0.0000-0.5000 (  2762 PWs)   bands (ev):

    -7.3068  -7.3058  -6.8129  -6.8127  -6.8120  -6.8104  -6.5092  -6.5059
     5.0194   5.0199   5.0265   5.0298   5.7689   5.7714   6.0984   6.1020
     6.1042   6.1082   6.4036   6.4063   6.6512   6.6539   6.6835   6.6871
     6.7218   6.7266   6.7285   6.7336   8.1486   8.1511   8.1596   8.1626
     9.2500   9.2559   9.9506   9.9516  10.0309  10.0321  10.0460  10.0466
    10.0492  10.0549  10.1701  10.1719  10.3501  10.3516  10.4967  10.4967
    10.5193  10.5245  10.5824  10.5828  10.9121  10.9234  11.0053  11.0126
    11.1485  11.1565  11.2267  11.2370  11.3365  11.3409  11.3451  11.3500
    12.4620  12.4741  12.7201  12.7301  13.5178  13.5230  13.6177  13.6245
    17.6661  17.6686  19.2522  19.2523  19.2530

          k = 0.0000 0.2500-0.5000 (  2740 PWs)   bands (ev):

    -7.1480  -7.1476  -7.1472  -7.1457  -6.5764  -6.5726  -6.5725  -6.5675
     5.2794   5.2824   5.2838   5.3295   5.3800   5.5434   5.5434   5.6554
     6.2238   6.2537   6.2558   6.2878   6.6205   6.6211   6.6346   6.7630
     6.9008   7.2680   7.2713   7.4625   7.4796   7.5063   7.5077   7.5599
     9.7129   9.7397   9.7402   9.8082   9.9884  10.0388  10.0393  10.0701
    10.1195  10.2730  10.2893  10.2897  10.3462  10.3472  10.4014  10.4652
    10.6168  10.6651  10.6651  10.6910  10.9497  10.9526  10.9742  10.9944
    11.1770  11.1857  11.1939  11.2841  11.2996  11.3040  11.3698  11.3708
    12.7787  12.8892  12.8979  13.0073  13.1574  13.1989  13.2064  13.2489
    18.0187  18.0359  18.0375  18.0564  20.8602

          k = 0.1250 0.1250 0.1250 (  2743 PWs)   bands (ev):

    -7.9015  -6.9249  -6.6800  -6.6800  -6.6798  -6.6293  -6.6260  -6.6260
     4.3458   4.3507   4.3507   4.6122   5.3429   5.3433   5.3433   6.4800
     6.4809   6.4809   6.6225   6.6242   6.6242   6.6979   6.6979   7.2131
     7.2153   7.2153   7.7060   7.7078   7.7078   7.9739   8.4549   8.4549
     9.2648   9.2649   9.2649   9.6199   9.6199  10.0037  10.0664  10.0668
    10.0668  10.2789  10.2789  10.2812  10.6047  10.6047  10.6063  10.6264
    10.6264  10.7247  10.7261  10.7261  10.9185  10.9185  10.9436  10.9458
    10.9458  11.0388  11.2577  11.2646  11.2646  11.3987  11.3987  11.4018
    13.3366  13.3366  13.3511  13.3533  13.3533  13.3584  13.3683  13.3683
    14.7675  17.5957  18.6754  18.6754  18.6764

          k =-0.2500-0.2500-0.2500 (  2764 PWs)   bands (ev):

    -7.4482  -7.4398  -6.6687  -6.6687  -6.6682  -6.6479  -6.6444  -6.6444
     5.0099   5.0112   5.0112   5.1114   5.1165   5.1165   6.0791   6.1207
     6.2597   6.2597   6.2605   6.6928   6.6955   6.6955   6.7501   6.7501
     6.7505   6.9802   6.9802   7.4474   7.4523   7.4523   7.8682   7.8682
     9.4919   9.4919   9.4921   9.6753   9.6753  10.1175  10.1223  10.1223
    10.1223  10.4564  10.4564  10.4598  10.5084  10.5084  10.5084  10.7342
    10.7342  10.8436  10.8436  10.8441  10.8776  11.0572  11.0572  11.0576
    11.2460  11.2530  11.2530  11.3009  11.3009  11.4064  11.4064  11.4097
    13.0408  13.0445  13.0445  13.0600  13.0600  13.0721  13.0838  13.0838
    16.4110  16.5597  19.6315  19.6315  19.6323

          k =-0.3750-0.1250-0.3750 (  2734 PWs)   bands (ev):

    -7.4984  -7.1679  -6.9621  -6.7668  -6.7659  -6.5908  -6.5517  -6.5490
     4.9636   4.9734   4.9743   5.2839   5.4387   5.4978   5.5003   6.2218
     6.2261   6.2282   6.2647   6.6539   6.6659   6.6673   6.6982   6.7014
     6.8294   7.0813   7.0832   7.2710   7.3813   7.7545   7.7625   8.0526
     9.3554   9.5455   9.7612   9.7612   9.7857  10.0611  10.0970  10.0972
    10.2886  10.2910  10.4226  10.4236  10.4442  10.5562  10.5571  10.5605
    10.5746  10.6514  10.6527  10.6536  10.8454  10.8818  10.8854  10.9646
    11.0742  11.2463  11.2783  11.3059  11.3060  11.3638  11.3672  11.4277
    12.6981  12.8445  12.8849  12.8952  13.2839  13.3371  13.3433  13.3535
    16.6943  17.6051  18.6703  19.3602  19.3605

          k = 0.3750-0.1250 0.3750 (  2734 PWs)   bands (ev):

    -7.4983  -7.1678  -6.9620  -6.7665  -6.7657  -6.5912  -6.5520  -6.5492
     4.9693   4.9741   4.9755   5.2434   5.5000   5.5030   5.5052   6.1228
     6.2286   6.2308   6.3451   6.5670   6.5692   6.6618   6.8206   6.8228
     6.8300   7.0429   7.0447   7.1557   7.5063   7.7467   7.7730   8.0008
     9.3835   9.5585   9.9445   9.9455  10.0219  10.0237  10.0444  10.0459
    10.0586  10.1791  10.2151  10.2156  10.4016  10.4451  10.5004  10.5006
    10.6626  10.6981  10.6987  10.7137  10.8988  10.9521  11.0972  11.1026
    11.2178  11.2217  11.2377  11.2726  11.2813  11.2852  11.3495  11.3564
    12.7455  12.8046  12.8821  12.8920  13.2578  13.3426  13.3481  13.3602
    16.6944  17.6036  18.6725  19.3611  19.3614

          k =-0.2500 0.0000-0.2500 (  2742 PWs)   bands (ev):

    -7.6365  -7.0127  -7.0125  -6.7153  -6.7151  -6.5983  -6.5964  -6.5409
     4.7703   4.7741   5.0767   5.0825   5.2415   5.2419   5.7020   5.9669
     6.3149   6.3160   6.5848   6.6765   6.6791   6.7895   6.8590   6.9216
     7.0176   7.1604   7.1639   7.2051   7.2067   7.4890   7.8358   8.1224
     9.5576   9.6096   9.6383   9.6389   9.7760  10.0754  10.0762  10.1319
    10.2438  10.2470  10.3069  10.3893  10.4497  10.5619  10.5619  10.5639
    10.6369  10.6654  10.6667  10.7491  10.7671  10.8231  11.0513  11.0539
    11.1100  11.2730  11.2771  11.3449  11.3723  11.3768  11.3889  11.4083
    13.0458  13.0491  13.0547  13.0676  13.0695  13.2071  13.2128  13.2417
    16.0093  18.0606  18.0631  19.3725  19.3749

     the Fermi energy is    11.9598 ev

!    total energy              =    -941.97132938 Ry
     Harris-Foulkes estimate   =    -941.97132937 Ry
     estimated scf accuracy    <          7.3E-09 Ry

     The total energy is the sum of the following terms:

     one-electron contribution =     -56.32186520 Ry
     hartree contribution      =     175.70331928 Ry
     xc contribution           =    -297.54012915 Ry
     ewald contribution        =    -763.85740583 Ry
     Hubbard energy            =       0.04475152 Ry
     smearing contrib. (-TS)   =       0.00000000 Ry

     total magnetization       =     0.00 Bohr mag/cell
     absolute magnetization    =    12.30 Bohr mag/cell

     convergence has been achieved in   7 iterations

     Writing output data file nio.save
 
     init_run     :     14.25s CPU     16.23s WALL (       1 calls)
     electrons    :    262.02s CPU    277.50s WALL (       1 calls)

     Called by init_run:
     wfcinit      :      0.71s CPU      1.41s WALL (       1 calls)
     potinit      :      1.17s CPU      1.38s WALL (       1 calls)

     Called by electrons:
     c_bands      :     95.37s CPU    100.78s WALL (       7 calls)
     sum_band     :     90.56s CPU     92.96s WALL (       7 calls)
     v_of_rho     :      6.94s CPU      7.76s WALL (       8 calls)
     newd         :     75.43s CPU     82.94s WALL (       8 calls)
     mix_rho      :      1.10s CPU      1.23s WALL (       7 calls)

     Called by c_bands:
     init_us_2    :      1.02s CPU      1.09s WALL (     105 calls)
     cegterg      :     92.41s CPU     97.26s WALL (      49 calls)

     Called by *egterg:
     h_psi        :     65.72s CPU     68.48s WALL (     207 calls)
     s_psi        :      5.94s CPU      5.96s WALL (     214 calls)
     g_psi        :      0.32s CPU      0.32s WALL (     158 calls)
     cdiaghg      :      6.11s CPU      6.12s WALL (     200 calls)

     Called by h_psi:
     add_vuspsi   :      5.59s CPU      5.60s WALL (     207 calls)

     General routines
     calbec       :     10.12s CPU     10.12s WALL (     519 calls)
     fft          :      6.04s CPU      6.68s WALL (     236 calls)
     ffts         :      0.09s CPU      0.11s WALL (      30 calls)
     fftw         :     38.26s CPU     41.76s WALL (   21933 calls)
     interpolate  :      1.24s CPU      1.55s WALL (      30 calls)
     davcio       :      0.01s CPU      1.86s WALL (     308 calls)
 
     Parallel routines
     fft_scatter  :      7.81s CPU      9.34s WALL (   22199 calls)
     EXX routines
 
     PWSCF        :  4m36.68s CPU     4m54.27s WALL

 
   This run was terminated on:  16:50:58  16Jun2012            

=------------------------------------------------------------------------------=
   JOB DONE.
=------------------------------------------------------------------------------=
