
     Program PWSCF v.5.0        starts on 16Jun2012 at 16:21:34 

     This program is part of the open-source Quantum ESPRESSO suite
     for quantum simulation of materials; please cite
         "P. Giannozzi et al., J. Phys.:Condens. Matter 21 395502 (2009);
          URL http://www.quantum-espresso.org", 
     in publications or presentations arising from this work. More details at
     http://www.quantum-espresso.org/quote.php

     Parallel version (MPI), running on     4 processors
     K-points division:     npool     =    4

     Current dimensions of program PWSCF are:
     Max number of different atomic species (ntypx) = 10
     Max number of k-points (npk) =  40000
     Max angular momentum in pseudopotentials (lmaxx) =  3
     Waiting for input...
     Reading input from standard input
               file Ni.pbe-nd-rrkjus.UPF: wavefunction(s)  4S renormalized
               file Ni.pbe-nd-rrkjus.UPF: wavefunction(s)  4S renormalized
               file Ni.pbe-nd-rrkjus.UPF: wavefunction(s)  4S renormalized
               file O.pbe-rrkjus.UPF: wavefunction(s)  2S renormalized

     Subspace diagonalization in iterative solution of the eigenvalue problem:
     a serial algorithm will be used

 
     G-vector sticks info
     --------------------
     sticks:   dense  smooth     PW     G-vecs:    dense   smooth      PW
     Sum        2587    1039    301                86547    22075    3479
 


     bravais-lattice index     =            0
     lattice parameter (alat)  =       7.9000  a.u.
     unit-cell volume          =     986.0780 (a.u.)^3
     number of atoms/cell      =           16
     number of atomic types    =            4
     number of electrons       =       128.00
     number of Kohn-Sham states=           77
     kinetic-energy cutoff     =      30.0000  Ry
     charge density cutoff     =     300.0000  Ry
     convergence threshold     =      1.0E-08
     mixing beta               =       0.3000
     number of iterations used =            8  plain     mixing
     Exchange-correlation      =  SLA  PW   PBE  PBE ( 1 4 3 4 0)
     EXX-fraction              =        0.00

     celldm(1)=   7.900000  celldm(2)=   0.000000  celldm(3)=   0.000000
     celldm(4)=   0.000000  celldm(5)=   0.000000  celldm(6)=   0.000000

     crystal axes: (cart. coord. in units of alat)
               a(1) = (   1.000000   1.000000   0.000000 )  
               a(2) = (   1.000000   0.000000   1.000000 )  
               a(3) = (   0.000000   1.000000   1.000000 )  

     reciprocal axes: (cart. coord. in units 2 pi/alat)
               b(1) = (  0.500000  0.500000 -0.500000 )  
               b(2) = (  0.500000 -0.500000  0.500000 )  
               b(3) = ( -0.500000  0.500000  0.500000 )  


     PseudoPot. # 1 for Ni read from file:
     ../pseudo/Ni.pbe-nd-rrkjus.UPF
     MD5 check sum: 8081f0a005c9a5470caab1a58e82ecb2
     Pseudo is Ultrasoft + core correction, Zval = 10.0
     Generated by new atomic code, or converted to UPF format
     Using radial grid of 1203 points,  6 beta functions with: 
                l(1) =   0
                l(2) =   0
                l(3) =   1
                l(4) =   1
                l(5) =   2
                l(6) =   2
     Q(r) pseudized with 0 coefficients 


     PseudoPot. # 2 for Ni read from file:
     ../pseudo/Ni.pbe-nd-rrkjus.UPF
     MD5 check sum: 8081f0a005c9a5470caab1a58e82ecb2
     Pseudo is Ultrasoft + core correction, Zval = 10.0
     Generated by new atomic code, or converted to UPF format
     Using radial grid of 1203 points,  6 beta functions with: 
                l(1) =   0
                l(2) =   0
                l(3) =   1
                l(4) =   1
                l(5) =   2
                l(6) =   2
     Q(r) pseudized with 0 coefficients 


     PseudoPot. # 3 for Ni read from file:
     ../pseudo/Ni.pbe-nd-rrkjus.UPF
     MD5 check sum: 8081f0a005c9a5470caab1a58e82ecb2
     Pseudo is Ultrasoft + core correction, Zval = 10.0
     Generated by new atomic code, or converted to UPF format
     Using radial grid of 1203 points,  6 beta functions with: 
                l(1) =   0
                l(2) =   0
                l(3) =   1
                l(4) =   1
                l(5) =   2
                l(6) =   2
     Q(r) pseudized with 0 coefficients 


     PseudoPot. # 4 for O  read from file:
     ../pseudo/O.pbe-rrkjus.UPF
     MD5 check sum: 390ba29e75625707450f3bd3f0eb6be9
     Pseudo is Ultrasoft, Zval =  6.0
     Generated by new atomic code, or converted to UPF format
     Using radial grid of 1269 points,  4 beta functions with: 
                l(1) =   0
                l(2) =   0
                l(3) =   1
                l(4) =   1
     Q(r) pseudized with 0 coefficients 


     atomic species   valence    mass     pseudopotential
        Ni1           10.00     1.00000     Ni( 1.00)
        Ni2           10.00     1.00000     Ni( 1.00)
        Ni3           10.00     1.00000     Ni( 1.00)
        O1             6.00     1.00000     O ( 1.00)

     Starting magnetic structure 
     atomic species   magnetization
        Ni1          0.500
        Ni2          0.500
        Ni3         -0.500
        O1           0.000
 -----
     simplified LDA+U calculation, Hubbard_lmax = 2
     atomic species  L   Hubbard U  Hubbard alpha
        Ni1          2    0.000000    0.000000
        Ni2          2    0.000000    0.000000
        Ni3          2    0.000000    0.000000
        O1           1    0.000000    0.000000
 -----

     12 Sym. Ops., with inversion, found



   Cartesian axes

     site n.     atom                  positions (alat units)
         1           Ni1 tau(   1) = (   0.0000000   0.0000000   0.0000000  )
         2           Ni2 tau(   2) = (   1.0000000   0.5000000   0.5000000  )
         3           Ni2 tau(   3) = (   0.5000000   1.0000000   0.5000000  )
         4           Ni2 tau(   4) = (   0.5000000   0.5000000   1.0000000  )
         5           Ni3 tau(   5) = (   0.5000000   0.5000000   0.0000000  )
         6           Ni3 tau(   6) = (   0.5000000   0.0000000   0.5000000  )
         7           Ni3 tau(   7) = (   0.0000000   0.5000000   0.5000000  )
         8           Ni3 tau(   8) = (   1.0000000   1.0000000   1.0000000  )
         9           O1  tau(   9) = (   0.0000000   0.0000000   0.5000000  )
        10           O1  tau(  10) = (   0.5000000   0.5000000   0.5000000  )
        11           O1  tau(  11) = (   0.0000000   0.5000000   1.0000000  )
        12           O1  tau(  12) = (   0.5000000   0.0000000   1.0000000  )
        13           O1  tau(  13) = (   1.0000000   0.5000000   1.0000000  )
        14           O1  tau(  14) = (   0.5000000   1.0000000   1.0000000  )
        15           O1  tau(  15) = (   0.5000000   0.5000000   1.5000000  )
        16           O1  tau(  16) = (   1.0000000   1.0000000   1.5000000  )

     number of k points=    26  gaussian smearing, width (Ry)=  0.0100
                       cart. coord. in units 2pi/alat
        k(    1) = (   0.0000000   0.0000000   0.0000000), wk =   0.0156250
        k(    2) = (  -0.1250000   0.1250000   0.1250000), wk =   0.0937500
        k(    3) = (   0.2500000  -0.2500000  -0.2500000), wk =   0.0468750
        k(    4) = (   0.0000000   0.0000000   0.2500000), wk =   0.0937500
        k(    5) = (   0.3750000  -0.3750000  -0.1250000), wk =   0.1875000
        k(    6) = (   0.2500000  -0.2500000   0.0000000), wk =   0.0937500
        k(    7) = (   0.0000000   0.0000000  -0.5000000), wk =   0.0468750
        k(    8) = (   0.0000000   0.2500000  -0.5000000), wk =   0.0937500
        k(    9) = (   0.1250000   0.1250000   0.1250000), wk =   0.0312500
        k(   10) = (  -0.2500000  -0.2500000  -0.2500000), wk =   0.0156250
        k(   11) = (  -0.3750000  -0.1250000  -0.3750000), wk =   0.0937500
        k(   12) = (   0.3750000  -0.1250000   0.3750000), wk =   0.0937500
        k(   13) = (  -0.2500000   0.0000000  -0.2500000), wk =   0.0937500
        k(   14) = (   0.0000000   0.0000000   0.0000000), wk =   0.0156250
        k(   15) = (  -0.1250000   0.1250000   0.1250000), wk =   0.0937500
        k(   16) = (   0.2500000  -0.2500000  -0.2500000), wk =   0.0468750
        k(   17) = (   0.0000000   0.0000000   0.2500000), wk =   0.0937500
        k(   18) = (   0.3750000  -0.3750000  -0.1250000), wk =   0.1875000
        k(   19) = (   0.2500000  -0.2500000   0.0000000), wk =   0.0937500
        k(   20) = (   0.0000000   0.0000000  -0.5000000), wk =   0.0468750
        k(   21) = (   0.0000000   0.2500000  -0.5000000), wk =   0.0937500
        k(   22) = (   0.1250000   0.1250000   0.1250000), wk =   0.0312500
        k(   23) = (  -0.2500000  -0.2500000  -0.2500000), wk =   0.0156250
        k(   24) = (  -0.3750000  -0.1250000  -0.3750000), wk =   0.0937500
        k(   25) = (   0.3750000  -0.1250000   0.3750000), wk =   0.0937500
        k(   26) = (  -0.2500000   0.0000000  -0.2500000), wk =   0.0937500

     Dense  grid:    86547 G-vectors     FFT dimensions: (  64,  64,  64)

     Smooth grid:    22075 G-vectors     FFT dimensions: (  40,  40,  40)

     Largest allocated arrays     est. size (Mb)     dimensions
        Kohn-Sham Wavefunctions         3.25 Mb     (   2764,   77)
        Atomic wavefunctions            3.37 Mb     (   2764,   80)
        NL pseudopotentials             8.77 Mb     (   2764,  208)
        Each V/rho on FFT grid          8.00 Mb     ( 262144,   2)
        Each G-vector array             0.66 Mb     (  86547)
        G-vector shells                 0.00 Mb     (    635)
     Largest temporary arrays     est. size (Mb)     dimensions
        Auxiliary wavefunctions        12.99 Mb     (   2764,  308)
        Each subspace H/S matrix        1.45 Mb     ( 308, 308)
        Each <psi_i|beta_j> matrix      0.24 Mb     (    208,   77)
        Arrays for rho mixing          32.00 Mb     ( 262144,   8)

     Check: negative/imaginary core charge=   -0.000047    0.000000

     Initial potential from superposition of free atoms

     starting charge  127.99632, renormalised to  128.00000
     Number of +U iterations with fixed ns =  0
     Starting occupations:
 --- enter write_ns ---
 LDA+U parameters:
U( 1)     =  0.00000000
alpha( 1) =  0.00000000
U( 2)     =  0.00000000
alpha( 2) =  0.00000000
U( 3)     =  0.00000000
alpha( 3) =  0.00000000
U( 4)     =  0.00000000
alpha( 4) =  0.00000000
atom    1   Tr[ns(na)] (up, down, total) =   5.00000  3.00000  8.00000
   spin  1
    eigenvalues: 
  1.000  1.000  1.000  1.000  1.000
    eigenvectors:
  1.000  0.000  0.000  0.000  0.000
  0.000  1.000  0.000  0.000  0.000
  0.000  0.000  1.000  0.000  0.000
  0.000  0.000  0.000  1.000  0.000
  0.000  0.000  0.000  0.000  1.000
    occupations:
  1.000  0.000  0.000  0.000  0.000
  0.000  1.000  0.000  0.000  0.000
  0.000  0.000  1.000  0.000  0.000
  0.000  0.000  0.000  1.000  0.000
  0.000  0.000  0.000  0.000  1.000
   spin  2
    eigenvalues: 
  0.600  0.600  0.600  0.600  0.600
    eigenvectors:
  1.000  0.000  0.000  0.000  0.000
  0.000  1.000  0.000  0.000  0.000
  0.000  0.000  1.000  0.000  0.000
  0.000  0.000  0.000  1.000  0.000
  0.000  0.000  0.000  0.000  1.000
    occupations:
  0.600  0.000  0.000  0.000  0.000
  0.000  0.600  0.000  0.000  0.000
  0.000  0.000  0.600  0.000  0.000
  0.000  0.000  0.000  0.600  0.000
  0.000  0.000  0.000  0.000  0.600
atomic mag. moment =     2.000000
atom    2   Tr[ns(na)] (up, down, total) =   5.00000  3.00000  8.00000
   spin  1
    eigenvalues: 
  1.000  1.000  1.000  1.000  1.000
    eigenvectors:
  1.000  0.000  0.000  0.000  0.000
  0.000  1.000  0.000  0.000  0.000
  0.000  0.000  1.000  0.000  0.000
  0.000  0.000  0.000  1.000  0.000
  0.000  0.000  0.000  0.000  1.000
    occupations:
  1.000  0.000  0.000  0.000  0.000
  0.000  1.000  0.000  0.000  0.000
  0.000  0.000  1.000  0.000  0.000
  0.000  0.000  0.000  1.000  0.000
  0.000  0.000  0.000  0.000  1.000
   spin  2
    eigenvalues: 
  0.600  0.600  0.600  0.600  0.600
    eigenvectors:
  1.000  0.000  0.000  0.000  0.000
  0.000  1.000  0.000  0.000  0.000
  0.000  0.000  1.000  0.000  0.000
  0.000  0.000  0.000  1.000  0.000
  0.000  0.000  0.000  0.000  1.000
    occupations:
  0.600  0.000  0.000  0.000  0.000
  0.000  0.600  0.000  0.000  0.000
  0.000  0.000  0.600  0.000  0.000
  0.000  0.000  0.000  0.600  0.000
  0.000  0.000  0.000  0.000  0.600
atomic mag. moment =     2.000000
atom    3   Tr[ns(na)] (up, down, total) =   5.00000  3.00000  8.00000
   spin  1
    eigenvalues: 
  1.000  1.000  1.000  1.000  1.000
    eigenvectors:
  1.000  0.000  0.000  0.000  0.000
  0.000  1.000  0.000  0.000  0.000
  0.000  0.000  1.000  0.000  0.000
  0.000  0.000  0.000  1.000  0.000
  0.000  0.000  0.000  0.000  1.000
    occupations:
  1.000  0.000  0.000  0.000  0.000
  0.000  1.000  0.000  0.000  0.000
  0.000  0.000  1.000  0.000  0.000
  0.000  0.000  0.000  1.000  0.000
  0.000  0.000  0.000  0.000  1.000
   spin  2
    eigenvalues: 
  0.600  0.600  0.600  0.600  0.600
    eigenvectors:
  1.000  0.000  0.000  0.000  0.000
  0.000  1.000  0.000  0.000  0.000
  0.000  0.000  1.000  0.000  0.000
  0.000  0.000  0.000  1.000  0.000
  0.000  0.000  0.000  0.000  1.000
    occupations:
  0.600  0.000  0.000  0.000  0.000
  0.000  0.600  0.000  0.000  0.000
  0.000  0.000  0.600  0.000  0.000
  0.000  0.000  0.000  0.600  0.000
  0.000  0.000  0.000  0.000  0.600
atomic mag. moment =     2.000000
atom    4   Tr[ns(na)] (up, down, total) =   5.00000  3.00000  8.00000
   spin  1
    eigenvalues: 
  1.000  1.000  1.000  1.000  1.000
    eigenvectors:
  1.000  0.000  0.000  0.000  0.000
  0.000  1.000  0.000  0.000  0.000
  0.000  0.000  1.000  0.000  0.000
  0.000  0.000  0.000  1.000  0.000
  0.000  0.000  0.000  0.000  1.000
    occupations:
  1.000  0.000  0.000  0.000  0.000
  0.000  1.000  0.000  0.000  0.000
  0.000  0.000  1.000  0.000  0.000
  0.000  0.000  0.000  1.000  0.000
  0.000  0.000  0.000  0.000  1.000
   spin  2
    eigenvalues: 
  0.600  0.600  0.600  0.600  0.600
    eigenvectors:
  1.000  0.000  0.000  0.000  0.000
  0.000  1.000  0.000  0.000  0.000
  0.000  0.000  1.000  0.000  0.000
  0.000  0.000  0.000  1.000  0.000
  0.000  0.000  0.000  0.000  1.000
    occupations:
  0.600  0.000  0.000  0.000  0.000
  0.000  0.600  0.000  0.000  0.000
  0.000  0.000  0.600  0.000  0.000
  0.000  0.000  0.000  0.600  0.000
  0.000  0.000  0.000  0.000  0.600
atomic mag. moment =     2.000000
atom    5   Tr[ns(na)] (up, down, total) =   3.00000  5.00000  8.00000
   spin  1
    eigenvalues: 
  0.600  0.600  0.600  0.600  0.600
    eigenvectors:
  1.000  0.000  0.000  0.000  0.000
  0.000  1.000  0.000  0.000  0.000
  0.000  0.000  1.000  0.000  0.000
  0.000  0.000  0.000  1.000  0.000
  0.000  0.000  0.000  0.000  1.000
    occupations:
  0.600  0.000  0.000  0.000  0.000
  0.000  0.600  0.000  0.000  0.000
  0.000  0.000  0.600  0.000  0.000
  0.000  0.000  0.000  0.600  0.000
  0.000  0.000  0.000  0.000  0.600
   spin  2
    eigenvalues: 
  1.000  1.000  1.000  1.000  1.000
    eigenvectors:
  1.000  0.000  0.000  0.000  0.000
  0.000  1.000  0.000  0.000  0.000
  0.000  0.000  1.000  0.000  0.000
  0.000  0.000  0.000  1.000  0.000
  0.000  0.000  0.000  0.000  1.000
    occupations:
  1.000  0.000  0.000  0.000  0.000
  0.000  1.000  0.000  0.000  0.000
  0.000  0.000  1.000  0.000  0.000
  0.000  0.000  0.000  1.000  0.000
  0.000  0.000  0.000  0.000  1.000
atomic mag. moment =    -2.000000
atom    6   Tr[ns(na)] (up, down, total) =   3.00000  5.00000  8.00000
   spin  1
    eigenvalues: 
  0.600  0.600  0.600  0.600  0.600
    eigenvectors:
  1.000  0.000  0.000  0.000  0.000
  0.000  1.000  0.000  0.000  0.000
  0.000  0.000  1.000  0.000  0.000
  0.000  0.000  0.000  1.000  0.000
  0.000  0.000  0.000  0.000  1.000
    occupations:
  0.600  0.000  0.000  0.000  0.000
  0.000  0.600  0.000  0.000  0.000
  0.000  0.000  0.600  0.000  0.000
  0.000  0.000  0.000  0.600  0.000
  0.000  0.000  0.000  0.000  0.600
   spin  2
    eigenvalues: 
  1.000  1.000  1.000  1.000  1.000
    eigenvectors:
  1.000  0.000  0.000  0.000  0.000
  0.000  1.000  0.000  0.000  0.000
  0.000  0.000  1.000  0.000  0.000
  0.000  0.000  0.000  1.000  0.000
  0.000  0.000  0.000  0.000  1.000
    occupations:
  1.000  0.000  0.000  0.000  0.000
  0.000  1.000  0.000  0.000  0.000
  0.000  0.000  1.000  0.000  0.000
  0.000  0.000  0.000  1.000  0.000
  0.000  0.000  0.000  0.000  1.000
atomic mag. moment =    -2.000000
atom    7   Tr[ns(na)] (up, down, total) =   3.00000  5.00000  8.00000
   spin  1
    eigenvalues: 
  0.600  0.600  0.600  0.600  0.600
    eigenvectors:
  1.000  0.000  0.000  0.000  0.000
  0.000  1.000  0.000  0.000  0.000
  0.000  0.000  1.000  0.000  0.000
  0.000  0.000  0.000  1.000  0.000
  0.000  0.000  0.000  0.000  1.000
    occupations:
  0.600  0.000  0.000  0.000  0.000
  0.000  0.600  0.000  0.000  0.000
  0.000  0.000  0.600  0.000  0.000
  0.000  0.000  0.000  0.600  0.000
  0.000  0.000  0.000  0.000  0.600
   spin  2
    eigenvalues: 
  1.000  1.000  1.000  1.000  1.000
    eigenvectors:
  1.000  0.000  0.000  0.000  0.000
  0.000  1.000  0.000  0.000  0.000
  0.000  0.000  1.000  0.000  0.000
  0.000  0.000  0.000  1.000  0.000
  0.000  0.000  0.000  0.000  1.000
    occupations:
  1.000  0.000  0.000  0.000  0.000
  0.000  1.000  0.000  0.000  0.000
  0.000  0.000  1.000  0.000  0.000
  0.000  0.000  0.000  1.000  0.000
  0.000  0.000  0.000  0.000  1.000
atomic mag. moment =    -2.000000
atom    8   Tr[ns(na)] (up, down, total) =   3.00000  5.00000  8.00000
   spin  1
    eigenvalues: 
  0.600  0.600  0.600  0.600  0.600
    eigenvectors:
  1.000  0.000  0.000  0.000  0.000
  0.000  1.000  0.000  0.000  0.000
  0.000  0.000  1.000  0.000  0.000
  0.000  0.000  0.000  1.000  0.000
  0.000  0.000  0.000  0.000  1.000
    occupations:
  0.600  0.000  0.000  0.000  0.000
  0.000  0.600  0.000  0.000  0.000
  0.000  0.000  0.600  0.000  0.000
  0.000  0.000  0.000  0.600  0.000
  0.000  0.000  0.000  0.000  0.600
   spin  2
    eigenvalues: 
  1.000  1.000  1.000  1.000  1.000
    eigenvectors:
  1.000  0.000  0.000  0.000  0.000
  0.000  1.000  0.000  0.000  0.000
  0.000  0.000  1.000  0.000  0.000
  0.000  0.000  0.000  1.000  0.000
  0.000  0.000  0.000  0.000  1.000
    occupations:
  1.000  0.000  0.000  0.000  0.000
  0.000  1.000  0.000  0.000  0.000
  0.000  0.000  1.000  0.000  0.000
  0.000  0.000  0.000  1.000  0.000
  0.000  0.000  0.000  0.000  1.000
atomic mag. moment =    -2.000000
atom    9   Tr[ns(na)] (up, down, total) =   2.00000  2.00000  4.00000
   spin  1
    eigenvalues: 
  0.667  0.667  0.667
    eigenvectors:
  1.000  0.000  0.000
  0.000  1.000  0.000
  0.000  0.000  1.000
    occupations:
  0.667  0.000  0.000
  0.000  0.667  0.000
  0.000  0.000  0.667
   spin  2
    eigenvalues: 
  0.667  0.667  0.667
    eigenvectors:
  1.000  0.000  0.000
  0.000  1.000  0.000
  0.000  0.000  1.000
    occupations:
  0.667  0.000  0.000
  0.000  0.667  0.000
  0.000  0.000  0.667
atomic mag. moment =     0.000000
atom   10   Tr[ns(na)] (up, down, total) =   2.00000  2.00000  4.00000
   spin  1
    eigenvalues: 
  0.667  0.667  0.667
    eigenvectors:
  1.000  0.000  0.000
  0.000  1.000  0.000
  0.000  0.000  1.000
    occupations:
  0.667  0.000  0.000
  0.000  0.667  0.000
  0.000  0.000  0.667
   spin  2
    eigenvalues: 
  0.667  0.667  0.667
    eigenvectors:
  1.000  0.000  0.000
  0.000  1.000  0.000
  0.000  0.000  1.000
    occupations:
  0.667  0.000  0.000
  0.000  0.667  0.000
  0.000  0.000  0.667
atomic mag. moment =     0.000000
atom   11   Tr[ns(na)] (up, down, total) =   2.00000  2.00000  4.00000
   spin  1
    eigenvalues: 
  0.667  0.667  0.667
    eigenvectors:
  1.000  0.000  0.000
  0.000  1.000  0.000
  0.000  0.000  1.000
    occupations:
  0.667  0.000  0.000
  0.000  0.667  0.000
  0.000  0.000  0.667
   spin  2
    eigenvalues: 
  0.667  0.667  0.667
    eigenvectors:
  1.000  0.000  0.000
  0.000  1.000  0.000
  0.000  0.000  1.000
    occupations:
  0.667  0.000  0.000
  0.000  0.667  0.000
  0.000  0.000  0.667
atomic mag. moment =     0.000000
atom   12   Tr[ns(na)] (up, down, total) =   2.00000  2.00000  4.00000
   spin  1
    eigenvalues: 
  0.667  0.667  0.667
    eigenvectors:
  1.000  0.000  0.000
  0.000  1.000  0.000
  0.000  0.000  1.000
    occupations:
  0.667  0.000  0.000
  0.000  0.667  0.000
  0.000  0.000  0.667
   spin  2
    eigenvalues: 
  0.667  0.667  0.667
    eigenvectors:
  1.000  0.000  0.000
  0.000  1.000  0.000
  0.000  0.000  1.000
    occupations:
  0.667  0.000  0.000
  0.000  0.667  0.000
  0.000  0.000  0.667
atomic mag. moment =     0.000000
atom   13   Tr[ns(na)] (up, down, total) =   2.00000  2.00000  4.00000
   spin  1
    eigenvalues: 
  0.667  0.667  0.667
    eigenvectors:
  1.000  0.000  0.000
  0.000  1.000  0.000
  0.000  0.000  1.000
    occupations:
  0.667  0.000  0.000
  0.000  0.667  0.000
  0.000  0.000  0.667
   spin  2
    eigenvalues: 
  0.667  0.667  0.667
    eigenvectors:
  1.000  0.000  0.000
  0.000  1.000  0.000
  0.000  0.000  1.000
    occupations:
  0.667  0.000  0.000
  0.000  0.667  0.000
  0.000  0.000  0.667
atomic mag. moment =     0.000000
atom   14   Tr[ns(na)] (up, down, total) =   2.00000  2.00000  4.00000
   spin  1
    eigenvalues: 
  0.667  0.667  0.667
    eigenvectors:
  1.000  0.000  0.000
  0.000  1.000  0.000
  0.000  0.000  1.000
    occupations:
  0.667  0.000  0.000
  0.000  0.667  0.000
  0.000  0.000  0.667
   spin  2
    eigenvalues: 
  0.667  0.667  0.667
    eigenvectors:
  1.000  0.000  0.000
  0.000  1.000  0.000
  0.000  0.000  1.000
    occupations:
  0.667  0.000  0.000
  0.000  0.667  0.000
  0.000  0.000  0.667
atomic mag. moment =     0.000000
atom   15   Tr[ns(na)] (up, down, total) =   2.00000  2.00000  4.00000
   spin  1
    eigenvalues: 
  0.667  0.667  0.667
    eigenvectors:
  1.000  0.000  0.000
  0.000  1.000  0.000
  0.000  0.000  1.000
    occupations:
  0.667  0.000  0.000
  0.000  0.667  0.000
  0.000  0.000  0.667
   spin  2
    eigenvalues: 
  0.667  0.667  0.667
    eigenvectors:
  1.000  0.000  0.000
  0.000  1.000  0.000
  0.000  0.000  1.000
    occupations:
  0.667  0.000  0.000
  0.000  0.667  0.000
  0.000  0.000  0.667
atomic mag. moment =     0.000000
atom   16   Tr[ns(na)] (up, down, total) =   2.00000  2.00000  4.00000
   spin  1
    eigenvalues: 
  0.667  0.667  0.667
    eigenvectors:
  1.000  0.000  0.000
  0.000  1.000  0.000
  0.000  0.000  1.000
    occupations:
  0.667  0.000  0.000
  0.000  0.667  0.000
  0.000  0.000  0.667
   spin  2
    eigenvalues: 
  0.667  0.667  0.667
    eigenvectors:
  1.000  0.000  0.000
  0.000  1.000  0.000
  0.000  0.000  1.000
    occupations:
  0.667  0.000  0.000
  0.000  0.667  0.000
  0.000  0.000  0.667
atomic mag. moment =     0.000000
N of occupied +U levels =  96.0000000
 --- exit write_ns ---
 Atomic wfc used for LDA+U Projector are NOT orthogonalized
     Starting wfc are   80 randomized atomic wfcs

     total cpu time spent up to now is       21.7 secs

     per-process dynamical memory:    88.0 Mb

     Self-consistent Calculation

     iteration #  1     ecut=    30.00 Ry     beta=0.30
     Davidson diagonalization with overlap
     ethr =  1.00E-02,  avg # of iterations =  3.2
 --- enter write_ns ---
 LDA+U parameters:
U( 1)     =  0.00000000
alpha( 1) =  0.00000000
U( 2)     =  0.00000000
alpha( 2) =  0.00000000
U( 3)     =  0.00000000
alpha( 3) =  0.00000000
U( 4)     =  0.00000000
alpha( 4) =  0.00000000
atom    1   Tr[ns(na)] (up, down, total) =   4.98476  3.08050  8.06526
   spin  1
    eigenvalues: 
  0.995  0.995  0.998  0.998  0.998
    eigenvectors:
  0.513  0.486  0.001  0.000  0.000
  0.000  0.000  0.132  0.535  0.333
  0.000  0.000  0.204  0.462  0.333
  0.486  0.513  0.000  0.001  0.000
  0.000  0.000  0.664  0.003  0.333
    occupations:
  0.995  0.000  0.000  0.000  0.000
  0.000  0.998  0.000  0.000  0.000
  0.000  0.000  0.998  0.000  0.000
  0.000  0.000  0.000  0.995  0.000
  0.000  0.000  0.000  0.000  0.998
   spin  2
    eigenvalues: 
  0.241  0.241  0.851  0.851  0.896
    eigenvectors:
  0.849  0.151  0.000  0.000  0.000
  0.000  0.000  0.150  0.516  0.333
  0.000  0.000  0.184  0.483  0.333
  0.151  0.849  0.000  0.000  0.000
  0.000  0.000  0.666  0.001  0.333
    occupations:
  0.241  0.005  0.005  0.000  0.010
  0.005  0.866  0.015  0.009 -0.015
  0.005  0.015  0.866 -0.009 -0.015
  0.000  0.009 -0.009  0.241  0.000
  0.010 -0.015 -0.015  0.000  0.866
atomic mag. moment =     1.904257
atom    2   Tr[ns(na)] (up, down, total) =   4.98475  3.08049  8.06524
   spin  1
    eigenvalues: 
  0.995  0.995  0.998  0.998  0.998
    eigenvectors:
  0.250  0.750  0.000  0.000  0.000
  0.000  0.000  0.164  0.500  0.335
  0.000  0.000  0.671  0.000  0.329
  0.750  0.250  0.000  0.000  0.000
  0.000  0.000  0.164  0.500  0.335
    occupations:
  0.995  0.000  0.000  0.000  0.000
  0.000  0.998  0.000  0.000  0.000
  0.000  0.000  0.998  0.000  0.000
  0.000  0.000  0.000  0.995  0.000
  0.000  0.000  0.000  0.000  0.998
   spin  2
    eigenvalues: 
  0.241  0.241  0.851  0.851  0.896
    eigenvectors:
  0.750  0.250  0.000  0.000  0.000
  0.000  0.000  0.167  0.500  0.333
  0.000  0.000  0.666  0.000  0.333
  0.250  0.750  0.000  0.000  0.000
  0.000  0.000  0.167  0.500  0.333
    occupations:
  0.241  0.005  0.005  0.000  0.010
  0.005  0.866  0.015  0.009 -0.015
  0.005  0.015  0.866 -0.009 -0.015
  0.000  0.009 -0.009  0.241  0.000
  0.010 -0.015 -0.015  0.000  0.866
atomic mag. moment =     1.904263
atom    3   Tr[ns(na)] (up, down, total) =   4.98475  3.08049  8.06524
   spin  1
    eigenvalues: 
  0.995  0.995  0.998  0.998  0.998
    eigenvectors:
  0.250  0.750  0.000  0.000  0.000
  0.000  0.000  0.671  0.000  0.329
  0.000  0.000  0.164  0.500  0.335
  0.750  0.250  0.000  0.000  0.000
  0.000  0.000  0.164  0.500  0.335
    occupations:
  0.995  0.000  0.000  0.000  0.000
  0.000  0.998  0.000  0.000  0.000
  0.000  0.000  0.998  0.000  0.000
  0.000  0.000  0.000  0.995  0.000
  0.000  0.000  0.000  0.000  0.998
   spin  2
    eigenvalues: 
  0.241  0.241  0.851  0.851  0.896
    eigenvectors:
  0.750  0.250  0.000  0.000  0.000
  0.000  0.000  0.666  0.000  0.333
  0.000  0.000  0.167  0.500  0.333
  0.250  0.750  0.000  0.000  0.000
  0.000  0.000  0.167  0.500  0.333
    occupations:
  0.241  0.005  0.005  0.000  0.010
  0.005  0.866  0.015  0.009 -0.015
  0.005  0.015  0.866 -0.009 -0.015
  0.000  0.009 -0.009  0.241  0.000
  0.010 -0.015 -0.015  0.000  0.866
atomic mag. moment =     1.904263
atom    4   Tr[ns(na)] (up, down, total) =   4.98475  3.08049  8.06524
   spin  1
    eigenvalues: 
  0.995  0.995  0.998  0.998  0.998
    eigenvectors:
  0.999  0.000  0.001  0.000  0.000
  0.000  0.000  0.164  0.500  0.335
  0.000  0.000  0.164  0.500  0.335
  0.000  0.999  0.000  0.001  0.000
  0.000  0.000  0.671  0.000  0.329
    occupations:
  0.995  0.000  0.000  0.000  0.000
  0.000  0.998  0.000  0.000  0.000
  0.000  0.000  0.998  0.000  0.000
  0.000  0.000  0.000  0.995  0.000
  0.000  0.000  0.000  0.000  0.998
   spin  2
    eigenvalues: 
  0.241  0.241  0.851  0.851  0.896
    eigenvectors:
  0.000  1.000  0.000  0.000  0.000
  0.000  0.000  0.167  0.500  0.333
  0.000  0.000  0.167  0.500  0.333
  1.000  0.000  0.000  0.000  0.000
  0.000  0.000  0.666  0.000  0.333
    occupations:
  0.241  0.005  0.005  0.000  0.010
  0.005  0.866  0.015  0.009 -0.015
  0.005  0.015  0.866 -0.009 -0.015
  0.000  0.009 -0.009  0.241  0.000
  0.010 -0.015 -0.015  0.000  0.866
atomic mag. moment =     1.904263
atom    5   Tr[ns(na)] (up, down, total) =   3.08059  4.98475  8.06534
   spin  1
    eigenvalues: 
  0.241  0.241  0.851  0.851  0.896
    eigenvectors:
  0.000  1.000  0.000  0.000  0.000
  0.000  0.000  0.167  0.500  0.333
  0.000  0.000  0.167  0.500  0.333
  1.000  0.000  0.000  0.000  0.000
  0.000  0.000  0.666  0.000  0.333
    occupations:
  0.241  0.005  0.005  0.000  0.010
  0.005  0.866  0.015  0.009 -0.015
  0.005  0.015  0.866 -0.009 -0.015
  0.000  0.009 -0.009  0.241  0.000
  0.010 -0.015 -0.015  0.000  0.866
   spin  2
    eigenvalues: 
  0.995  0.995  0.998  0.998  0.998
    eigenvectors:
  0.999  0.000  0.000  0.001  0.000
  0.000  0.000  0.500  0.166  0.334
  0.000  0.000  0.500  0.166  0.334
  0.000  0.999  0.001  0.000  0.000
  0.000  0.000  0.000  0.668  0.332
    occupations:
  0.995  0.000  0.000  0.000  0.000
  0.000  0.998  0.000  0.000  0.000
  0.000  0.000  0.998  0.000  0.000
  0.000  0.000  0.000  0.995  0.000
  0.000  0.000  0.000  0.000  0.998
atomic mag. moment =    -1.904160
atom    6   Tr[ns(na)] (up, down, total) =   3.08059  4.98475  8.06534
   spin  1
    eigenvalues: 
  0.241  0.241  0.851  0.851  0.896
    eigenvectors:
  0.750  0.250  0.000  0.000  0.000
  0.000  0.000  0.666  0.000  0.333
  0.000  0.000  0.167  0.500  0.333
  0.250  0.750  0.000  0.000  0.000
  0.000  0.000  0.167  0.500  0.333
    occupations:
  0.241  0.005  0.005  0.000  0.010
  0.005  0.866  0.015  0.009 -0.015
  0.005  0.015  0.866 -0.009 -0.015
  0.000  0.009 -0.009  0.241  0.000
  0.010 -0.015 -0.015  0.000  0.866
   spin  2
    eigenvalues: 
  0.995  0.995  0.998  0.998  0.998
    eigenvectors:
  0.250  0.750  0.000  0.000  0.000
  0.000  0.000  0.000  0.668  0.332
  0.000  0.000  0.500  0.166  0.334
  0.750  0.250  0.000  0.000  0.000
  0.000  0.000  0.500  0.166  0.334
    occupations:
  0.995  0.000  0.000  0.000  0.000
  0.000  0.998  0.000  0.000  0.000
  0.000  0.000  0.998  0.000  0.000
  0.000  0.000  0.000  0.995  0.000
  0.000  0.000  0.000  0.000  0.998
atomic mag. moment =    -1.904160
atom    7   Tr[ns(na)] (up, down, total) =   3.08059  4.98475  8.06534
   spin  1
    eigenvalues: 
  0.241  0.241  0.851  0.851  0.896
    eigenvectors:
  0.750  0.250  0.000  0.000  0.000
  0.000  0.000  0.167  0.500  0.333
  0.000  0.000  0.666  0.000  0.333
  0.250  0.750  0.000  0.000  0.000
  0.000  0.000  0.167  0.500  0.333
    occupations:
  0.241  0.005  0.005  0.000  0.010
  0.005  0.866  0.015  0.009 -0.015
  0.005  0.015  0.866 -0.009 -0.015
  0.000  0.009 -0.009  0.241  0.000
  0.010 -0.015 -0.015  0.000  0.866
   spin  2
    eigenvalues: 
  0.995  0.995  0.998  0.998  0.998
    eigenvectors:
  0.250  0.750  0.000  0.000  0.000
  0.000  0.000  0.500  0.166  0.334
  0.000  0.000  0.000  0.668  0.332
  0.750  0.250  0.000  0.000  0.000
  0.000  0.000  0.500  0.166  0.334
    occupations:
  0.995  0.000  0.000  0.000  0.000
  0.000  0.998  0.000  0.000  0.000
  0.000  0.000  0.998  0.000  0.000
  0.000  0.000  0.000  0.995  0.000
  0.000  0.000  0.000  0.000  0.998
atomic mag. moment =    -1.904160
atom    8   Tr[ns(na)] (up, down, total) =   3.08055  4.98474  8.06530
   spin  1
    eigenvalues: 
  0.241  0.241  0.851  0.851  0.896
    eigenvectors:
  0.383  0.616  0.000  0.000  0.000
  0.000  0.000  0.138  0.528  0.333
  0.000  0.000  0.197  0.469  0.333
  0.616  0.383  0.000  0.000  0.000
  0.000  0.000  0.665  0.002  0.333
    occupations:
  0.241  0.005  0.005  0.000  0.010
  0.005  0.866  0.015  0.009 -0.015
  0.005  0.015  0.866 -0.009 -0.015
  0.000  0.009 -0.009  0.241  0.000
  0.010 -0.015 -0.015  0.000  0.866
   spin  2
    eigenvalues: 
  0.995  0.995  0.998  0.998  0.998
    eigenvectors:
  0.338  0.662  0.001  0.000  0.000
  0.000  0.000  0.072  0.594  0.333
  0.000  0.000  0.284  0.382  0.333
  0.662  0.338  0.000  0.001  0.000
  0.000  0.000  0.643  0.023  0.333
    occupations:
  0.995  0.000  0.000  0.000  0.000
  0.000  0.998  0.000  0.000  0.000
  0.000  0.000  0.998  0.000  0.000
  0.000  0.000  0.000  0.995  0.000
  0.000  0.000  0.000  0.000  0.998
atomic mag. moment =    -1.904190
atom    9   Tr[ns(na)] (up, down, total) =   2.96541  2.96542  5.93082
   spin  1
    eigenvalues: 
  0.988  0.988  0.989
    eigenvectors:
  0.668  0.000  0.332
  0.166  0.500  0.334
  0.166  0.500  0.334
    occupations:
  0.988  0.000  0.000
  0.000  0.988  0.000
  0.000  0.000  0.988
   spin  2
    eigenvalues: 
  0.988  0.988  0.989
    eigenvectors:
  0.000  0.669  0.331
  0.500  0.165  0.335
  0.500  0.165  0.335
    occupations:
  0.988  0.000  0.000
  0.000  0.988  0.000
  0.000  0.000  0.988
atomic mag. moment =    -0.000007
atom   10   Tr[ns(na)] (up, down, total) =   2.96541  2.96542  5.93083
   spin  1
    eigenvalues: 
  0.988  0.988  0.989
    eigenvectors:
  0.422  0.244  0.333
  0.567  0.100  0.333
  0.011  0.656  0.333
    occupations:
  0.988  0.000  0.000
  0.000  0.988  0.000
  0.000  0.000  0.988
   spin  2
    eigenvalues: 
  0.988  0.988  0.989
    eigenvectors:
  0.476  0.191  0.333
  0.523  0.143  0.333
  0.001  0.666  0.333
    occupations:
  0.988  0.000  0.000
  0.000  0.988  0.000
  0.000  0.000  0.988
atomic mag. moment =    -0.000009
atom   11   Tr[ns(na)] (up, down, total) =   2.96541  2.96542  5.93082
   spin  1
    eigenvalues: 
  0.988  0.988  0.989
    eigenvectors:
  0.166  0.500  0.334
  0.166  0.500  0.334
  0.668  0.000  0.332
    occupations:
  0.988  0.000  0.000
  0.000  0.988  0.000
  0.000  0.000  0.988
   spin  2
    eigenvalues: 
  0.988  0.988  0.989
    eigenvectors:
  0.500  0.165  0.335
  0.500  0.165  0.335
  0.000  0.669  0.331
    occupations:
  0.988  0.000  0.000
  0.000  0.988  0.000
  0.000  0.000  0.988
atomic mag. moment =    -0.000007
atom   12   Tr[ns(na)] (up, down, total) =   2.96541  2.96542  5.93082
   spin  1
    eigenvalues: 
  0.988  0.988  0.989
    eigenvectors:
  0.166  0.500  0.334
  0.668  0.000  0.332
  0.166  0.500  0.334
    occupations:
  0.988  0.000  0.000
  0.000  0.988  0.000
  0.000  0.000  0.988
   spin  2
    eigenvalues: 
  0.988  0.988  0.989
    eigenvectors:
  0.500  0.165  0.335
  0.000  0.669  0.331
  0.500  0.165  0.335
    occupations:
  0.988  0.000  0.000
  0.000  0.988  0.000
  0.000  0.000  0.988
atomic mag. moment =    -0.000007
atom   13   Tr[ns(na)] (up, down, total) =   2.96541  2.96542  5.93082
   spin  1
    eigenvalues: 
  0.988  0.988  0.989
    eigenvectors:
  0.166  0.500  0.334
  0.166  0.500  0.334
  0.668  0.000  0.332
    occupations:
  0.988  0.000  0.000
  0.000  0.988  0.000
  0.000  0.000  0.988
   spin  2
    eigenvalues: 
  0.988  0.988  0.989
    eigenvectors:
  0.500  0.165  0.335
  0.500  0.165  0.335
  0.000  0.669  0.331
    occupations:
  0.988  0.000  0.000
  0.000  0.988  0.000
  0.000  0.000  0.988
atomic mag. moment =    -0.000007
atom   14   Tr[ns(na)] (up, down, total) =   2.96541  2.96542  5.93082
   spin  1
    eigenvalues: 
  0.988  0.988  0.989
    eigenvectors:
  0.166  0.500  0.334
  0.668  0.000  0.332
  0.166  0.500  0.334
    occupations:
  0.988  0.000  0.000
  0.000  0.988  0.000
  0.000  0.000  0.988
   spin  2
    eigenvalues: 
  0.988  0.988  0.989
    eigenvectors:
  0.500  0.165  0.335
  0.000  0.669  0.331
  0.500  0.165  0.335
    occupations:
  0.988  0.000  0.000
  0.000  0.988  0.000
  0.000  0.000  0.988
atomic mag. moment =    -0.000007
atom   15   Tr[ns(na)] (up, down, total) =   2.96541  2.96542  5.93083
   spin  1
    eigenvalues: 
  0.988  0.988  0.989
    eigenvectors:
  0.449  0.218  0.333
  0.546  0.120  0.333
  0.005  0.662  0.333
    occupations:
  0.988  0.000  0.000
  0.000  0.988  0.000
  0.000  0.000  0.988
   spin  2
    eigenvalues: 
  0.988  0.988  0.989
    eigenvectors:
  0.402  0.265  0.333
  0.582  0.085  0.333
  0.017  0.650  0.333
    occupations:
  0.988  0.000  0.000
  0.000  0.988  0.000
  0.000  0.000  0.988
atomic mag. moment =    -0.000009
atom   16   Tr[ns(na)] (up, down, total) =   2.96541  2.96542  5.93082
   spin  1
    eigenvalues: 
  0.988  0.988  0.989
    eigenvectors:
  0.668  0.000  0.332
  0.166  0.500  0.334
  0.166  0.500  0.334
    occupations:
  0.988  0.000  0.000
  0.000  0.988  0.000
  0.000  0.000  0.988
   spin  2
    eigenvalues: 
  0.988  0.988  0.989
    eigenvectors:
  0.000  0.669  0.331
  0.500  0.165  0.335
  0.500  0.165  0.335
    occupations:
  0.988  0.000  0.000
  0.000  0.988  0.000
  0.000  0.000  0.988
atomic mag. moment =    -0.000007
N of occupied +U levels = 111.9688926
 --- exit write_ns ---

     total cpu time spent up to now is       62.2 secs

     total energy              =    -938.82167096 Ry
     Harris-Foulkes estimate   =    -942.63300157 Ry
     estimated scf accuracy    <      10.04415135 Ry

     total magnetization       =     0.00 Bohr mag/cell
     absolute magnetization    =    18.44 Bohr mag/cell

     iteration #  2     ecut=    30.00 Ry     beta=0.30
     Davidson diagonalization with overlap
     ethr =  7.85E-03,  avg # of iterations =  2.0

     total cpu time spent up to now is      101.6 secs

     total energy              =    -941.39045127 Ry
     Harris-Foulkes estimate   =    -941.33848943 Ry
     estimated scf accuracy    <       2.02879768 Ry

     total magnetization       =     0.00 Bohr mag/cell
     absolute magnetization    =    12.09 Bohr mag/cell

     iteration #  3     ecut=    30.00 Ry     beta=0.30
     Davidson diagonalization with overlap
     ethr =  1.58E-03,  avg # of iterations =  1.0

     negative rho (up, down):  0.107E-03 0.107E-03

     total cpu time spent up to now is      138.4 secs

     total energy              =    -941.95027564 Ry
     Harris-Foulkes estimate   =    -941.52786694 Ry
     estimated scf accuracy    <       0.67068565 Ry

     total magnetization       =     0.00 Bohr mag/cell
     absolute magnetization    =    13.28 Bohr mag/cell

     iteration #  4     ecut=    30.00 Ry     beta=0.30
     Davidson diagonalization with overlap
     ethr =  5.24E-04,  avg # of iterations =  1.6

     negative rho (up, down):  0.401E-04 0.401E-04

     total cpu time spent up to now is      175.6 secs

     total energy              =    -941.99757592 Ry
     Harris-Foulkes estimate   =    -941.99459473 Ry
     estimated scf accuracy    <       0.03787464 Ry

     total magnetization       =     0.00 Bohr mag/cell
     absolute magnetization    =    12.20 Bohr mag/cell

     iteration #  5     ecut=    30.00 Ry     beta=0.30
     Davidson diagonalization with overlap
     ethr =  2.96E-05,  avg # of iterations =  4.5

     total cpu time spent up to now is      215.5 secs

     total energy              =    -942.00962343 Ry
     Harris-Foulkes estimate   =    -942.00211527 Ry
     estimated scf accuracy    <       0.00328237 Ry

     total magnetization       =     0.00 Bohr mag/cell
     absolute magnetization    =    12.36 Bohr mag/cell

     iteration #  6     ecut=    30.00 Ry     beta=0.30
     Davidson diagonalization with overlap
     ethr =  2.56E-06,  avg # of iterations =  2.9

     total cpu time spent up to now is      253.9 secs

     total energy              =    -942.01308208 Ry
     Harris-Foulkes estimate   =    -942.00997847 Ry
     estimated scf accuracy    <       0.00072850 Ry

     total magnetization       =     0.00 Bohr mag/cell
     absolute magnetization    =    12.30 Bohr mag/cell

     iteration #  7     ecut=    30.00 Ry     beta=0.30
     Davidson diagonalization with overlap
     ethr =  5.69E-07,  avg # of iterations =  1.7

     total cpu time spent up to now is      291.1 secs

     total energy              =    -942.01468762 Ry
     Harris-Foulkes estimate   =    -942.01314935 Ry
     estimated scf accuracy    <       0.00023002 Ry

     total magnetization       =     0.00 Bohr mag/cell
     absolute magnetization    =    12.30 Bohr mag/cell

     iteration #  8     ecut=    30.00 Ry     beta=0.30
     Davidson diagonalization with overlap
     ethr =  1.80E-07,  avg # of iterations =  1.8

     total cpu time spent up to now is      328.4 secs

     total energy              =    -942.01545124 Ry
     Harris-Foulkes estimate   =    -942.01470964 Ry
     estimated scf accuracy    <       0.00003562 Ry

     total magnetization       =     0.00 Bohr mag/cell
     absolute magnetization    =    12.31 Bohr mag/cell

     iteration #  9     ecut=    30.00 Ry     beta=0.30
     Davidson diagonalization with overlap
     ethr =  2.78E-08,  avg # of iterations =  2.0

     total cpu time spent up to now is      366.7 secs

     total energy              =    -942.01578685 Ry
     Harris-Foulkes estimate   =    -942.01546254 Ry
     estimated scf accuracy    <       0.00000215 Ry

     total magnetization       =     0.00 Bohr mag/cell
     absolute magnetization    =    12.29 Bohr mag/cell

     iteration # 10     ecut=    30.00 Ry     beta=0.30
     Davidson diagonalization with overlap
     ethr =  1.68E-09,  avg # of iterations =  2.1

     total cpu time spent up to now is      405.3 secs

     total energy              =    -942.01595007 Ry
     Harris-Foulkes estimate   =    -942.01578716 Ry
     estimated scf accuracy    <       0.00000074 Ry

     total magnetization       =     0.00 Bohr mag/cell
     absolute magnetization    =    12.29 Bohr mag/cell

     iteration # 11     ecut=    30.00 Ry     beta=0.30
     Davidson diagonalization with overlap
     ethr =  5.76E-10,  avg # of iterations =  2.0

     total cpu time spent up to now is      445.0 secs

     total energy              =    -942.01602751 Ry
     Harris-Foulkes estimate   =    -942.01595025 Ry
     estimated scf accuracy    <       0.00000012 Ry

     total magnetization       =     0.00 Bohr mag/cell
     absolute magnetization    =    12.29 Bohr mag/cell

     iteration # 12     ecut=    30.00 Ry     beta=0.30
     Davidson diagonalization with overlap
     ethr =  9.70E-11,  avg # of iterations =  2.0

     total cpu time spent up to now is      482.7 secs

     End of self-consistent calculation
 --- enter write_ns ---
 LDA+U parameters:
U( 1)     =  0.00000000
alpha( 1) =  0.00000000
U( 2)     =  0.00000000
alpha( 2) =  0.00000000
U( 3)     =  0.00000000
alpha( 3) =  0.00000000
U( 4)     =  0.00000000
alpha( 4) =  0.00000000
atom    1   Tr[ns(na)] (up, down, total) =   4.95240  3.75362  8.70602
   spin  1
    eigenvalues: 
  0.980  0.980  0.997  0.997  0.997
    eigenvectors:
  0.561  0.439  0.000  0.000  0.000
  0.000  0.000  0.095  0.572  0.333
  0.000  0.000  0.251  0.416  0.333
  0.439  0.561  0.000  0.000  0.000
  0.000  0.000  0.654  0.012  0.333
    occupations:
  0.980  0.000  0.000  0.000  0.000
  0.000  0.997  0.000  0.000  0.000
  0.000  0.000  0.997  0.000  0.000
  0.000  0.000  0.000  0.980  0.000
  0.000  0.000  0.000  0.000  0.997
   spin  2
    eigenvalues: 
  0.384  0.384  0.995  0.995  0.995
    eigenvectors:
  0.389  0.611  0.000  0.000  0.000
  0.000  0.000  0.114  0.552  0.333
  0.000  0.000  0.225  0.441  0.333
  0.611  0.389  0.000  0.000  0.000
  0.000  0.000  0.660  0.006  0.333
    occupations:
  0.384  0.001  0.001  0.000  0.001
  0.001  0.995  0.000  0.001  0.000
  0.001  0.000  0.995 -0.001  0.000
  0.000  0.001 -0.001  0.384  0.000
  0.001  0.000  0.000  0.000  0.995
atomic mag. moment =     1.198787
atom    2   Tr[ns(na)] (up, down, total) =   4.95241  3.75363  8.70603
   spin  1
    eigenvalues: 
  0.980  0.980  0.997  0.997  0.997
    eigenvectors:
  0.250  0.750  0.000  0.000  0.000
  0.000  0.000  0.500  0.167  0.333
  0.000  0.000  0.000  0.667  0.333
  0.750  0.250  0.000  0.000  0.000
  0.000  0.000  0.500  0.167  0.333
    occupations:
  0.980  0.000  0.000  0.000  0.000
  0.000  0.997  0.000  0.000  0.000
  0.000  0.000  0.997  0.000  0.000
  0.000  0.000  0.000  0.980  0.000
  0.000  0.000  0.000  0.000  0.997
   spin  2
    eigenvalues: 
  0.384  0.384  0.995  0.995  0.995
    eigenvectors:
  0.750  0.250  0.000  0.000  0.000
  0.000  0.000  0.500  0.167  0.333
  0.000  0.000  0.000  0.666  0.334
  0.250  0.750  0.000  0.000  0.000
  0.000  0.000  0.500  0.167  0.333
    occupations:
  0.384  0.001  0.001  0.000  0.001
  0.001  0.995  0.000  0.001  0.000
  0.001  0.000  0.995 -0.001  0.000
  0.000  0.001 -0.001  0.384  0.000
  0.001  0.000  0.000  0.000  0.995
atomic mag. moment =     1.198778
atom    3   Tr[ns(na)] (up, down, total) =   4.95241  3.75363  8.70603
   spin  1
    eigenvalues: 
  0.980  0.980  0.997  0.997  0.997
    eigenvectors:
  0.250  0.750  0.000  0.000  0.000
  0.000  0.000  0.000  0.667  0.333
  0.000  0.000  0.500  0.167  0.333
  0.750  0.250  0.000  0.000  0.000
  0.000  0.000  0.500  0.167  0.333
    occupations:
  0.980  0.000  0.000  0.000  0.000
  0.000  0.997  0.000  0.000  0.000
  0.000  0.000  0.997  0.000  0.000
  0.000  0.000  0.000  0.980  0.000
  0.000  0.000  0.000  0.000  0.997
   spin  2
    eigenvalues: 
  0.384  0.384  0.995  0.995  0.995
    eigenvectors:
  0.750  0.250  0.000  0.000  0.000
  0.000  0.000  0.000  0.666  0.334
  0.000  0.000  0.500  0.167  0.333
  0.250  0.750  0.000  0.000  0.000
  0.000  0.000  0.500  0.167  0.333
    occupations:
  0.384  0.001  0.001  0.000  0.001
  0.001  0.995  0.000  0.001  0.000
  0.001  0.000  0.995 -0.001  0.000
  0.000  0.001 -0.001  0.384  0.000
  0.001  0.000  0.000  0.000  0.995
atomic mag. moment =     1.198778
atom    4   Tr[ns(na)] (up, down, total) =   4.95241  3.75363  8.70603
   spin  1
    eigenvalues: 
  0.980  0.980  0.997  0.997  0.997
    eigenvectors:
  1.000  0.000  0.000  0.000  0.000
  0.000  0.000  0.500  0.167  0.333
  0.000  0.000  0.500  0.167  0.333
  0.000  1.000  0.000  0.000  0.000
  0.000  0.000  0.000  0.667  0.333
    occupations:
  0.980  0.000  0.000  0.000  0.000
  0.000  0.997  0.000  0.000  0.000
  0.000  0.000  0.997  0.000  0.000
  0.000  0.000  0.000  0.980  0.000
  0.000  0.000  0.000  0.000  0.997
   spin  2
    eigenvalues: 
  0.384  0.384  0.995  0.995  0.995
    eigenvectors:
  0.000  1.000  0.000  0.000  0.000
  0.000  0.000  0.500  0.167  0.333
  0.000  0.000  0.500  0.167  0.333
  1.000  0.000  0.000  0.000  0.000
  0.000  0.000  0.000  0.666  0.334
    occupations:
  0.384  0.001  0.001  0.000  0.001
  0.001  0.995  0.000  0.001  0.000
  0.001  0.000  0.995 -0.001  0.000
  0.000  0.001 -0.001  0.384  0.000
  0.001  0.000  0.000  0.000  0.995
atomic mag. moment =     1.198778
atom    5   Tr[ns(na)] (up, down, total) =   3.75362  4.95240  8.70603
   spin  1
    eigenvalues: 
  0.384  0.384  0.995  0.995  0.995
    eigenvectors:
  0.000  1.000  0.000  0.000  0.000
  0.000  0.000  0.167  0.500  0.333
  0.000  0.000  0.167  0.500  0.333
  1.000  0.000  0.000  0.000  0.000
  0.000  0.000  0.667  0.000  0.333
    occupations:
  0.384  0.001  0.001  0.000  0.001
  0.001  0.995  0.000  0.001  0.000
  0.001  0.000  0.995 -0.001  0.000
  0.000  0.001 -0.001  0.384  0.000
  0.001  0.000  0.000  0.000  0.995
   spin  2
    eigenvalues: 
  0.980  0.980  0.997  0.997  0.997
    eigenvectors:
  1.000  0.000  0.000  0.000  0.000
  0.000  0.000  0.500  0.167  0.333
  0.000  0.000  0.500  0.167  0.333
  0.000  1.000  0.000  0.000  0.000
  0.000  0.000  0.000  0.666  0.334
    occupations:
  0.980  0.000  0.000  0.000  0.000
  0.000  0.997  0.000  0.000  0.000
  0.000  0.000  0.997  0.000  0.000
  0.000  0.000  0.000  0.980  0.000
  0.000  0.000  0.000  0.000  0.997
atomic mag. moment =    -1.198782
atom    6   Tr[ns(na)] (up, down, total) =   3.75362  4.95240  8.70603
   spin  1
    eigenvalues: 
  0.384  0.384  0.995  0.995  0.995
    eigenvectors:
  0.750  0.250  0.000  0.000  0.000
  0.000  0.000  0.667  0.000  0.333
  0.000  0.000  0.167  0.500  0.333
  0.250  0.750  0.000  0.000  0.000
  0.000  0.000  0.167  0.500  0.333
    occupations:
  0.384  0.001  0.001  0.000  0.001
  0.001  0.995  0.000  0.001  0.000
  0.001  0.000  0.995 -0.001  0.000
  0.000  0.001 -0.001  0.384  0.000
  0.001  0.000  0.000  0.000  0.995
   spin  2
    eigenvalues: 
  0.980  0.980  0.997  0.997  0.997
    eigenvectors:
  0.250  0.750  0.000  0.000  0.000
  0.000  0.000  0.000  0.666  0.334
  0.000  0.000  0.500  0.167  0.333
  0.750  0.250  0.000  0.000  0.000
  0.000  0.000  0.500  0.167  0.333
    occupations:
  0.980  0.000  0.000  0.000  0.000
  0.000  0.997  0.000  0.000  0.000
  0.000  0.000  0.997  0.000  0.000
  0.000  0.000  0.000  0.980  0.000
  0.000  0.000  0.000  0.000  0.997
atomic mag. moment =    -1.198782
atom    7   Tr[ns(na)] (up, down, total) =   3.75362  4.95240  8.70603
   spin  1
    eigenvalues: 
  0.384  0.384  0.995  0.995  0.995
    eigenvectors:
  0.750  0.250  0.000  0.000  0.000
  0.000  0.000  0.167  0.500  0.333
  0.000  0.000  0.667  0.000  0.333
  0.250  0.750  0.000  0.000  0.000
  0.000  0.000  0.167  0.500  0.333
    occupations:
  0.384  0.001  0.001  0.000  0.001
  0.001  0.995  0.000  0.001  0.000
  0.001  0.000  0.995 -0.001  0.000
  0.000  0.001 -0.001  0.384  0.000
  0.001  0.000  0.000  0.000  0.995
   spin  2
    eigenvalues: 
  0.980  0.980  0.997  0.997  0.997
    eigenvectors:
  0.250  0.750  0.000  0.000  0.000
  0.000  0.000  0.500  0.167  0.333
  0.000  0.000  0.000  0.666  0.334
  0.750  0.250  0.000  0.000  0.000
  0.000  0.000  0.500  0.167  0.333
    occupations:
  0.980  0.000  0.000  0.000  0.000
  0.000  0.997  0.000  0.000  0.000
  0.000  0.000  0.997  0.000  0.000
  0.000  0.000  0.000  0.980  0.000
  0.000  0.000  0.000  0.000  0.997
atomic mag. moment =    -1.198782
atom    8   Tr[ns(na)] (up, down, total) =   3.75362  4.95241  8.70603
   spin  1
    eigenvalues: 
  0.384  0.384  0.995  0.995  0.995
    eigenvectors:
  0.949  0.051  0.000  0.000  0.000
  0.000  0.000  0.146  0.521  0.333
  0.000  0.000  0.189  0.478  0.333
  0.051  0.949  0.000  0.000  0.000
  0.000  0.000  0.666  0.001  0.333
    occupations:
  0.384  0.001  0.001  0.000  0.001
  0.001  0.995  0.000  0.001  0.000
  0.001  0.000  0.995 -0.001  0.000
  0.000  0.001 -0.001  0.384  0.000
  0.001  0.000  0.000  0.000  0.995
   spin  2
    eigenvalues: 
  0.980  0.980  0.997  0.997  0.997
    eigenvectors:
  0.353  0.647  0.000  0.000  0.000
  0.000  0.000  0.174  0.493  0.333
  0.000  0.000  0.160  0.507  0.333
  0.647  0.353  0.000  0.000  0.000
  0.000  0.000  0.667  0.000  0.333
    occupations:
  0.980  0.000  0.000  0.000  0.000
  0.000  0.997  0.000  0.000  0.000
  0.000  0.000  0.997  0.000  0.000
  0.000  0.000  0.000  0.980  0.000
  0.000  0.000  0.000  0.000  0.997
atomic mag. moment =    -1.198781
atom    9   Tr[ns(na)] (up, down, total) =   2.81114  2.81114  5.62228
   spin  1
    eigenvalues: 
  0.937  0.937  0.938
    eigenvectors:
  0.667  0.000  0.333
  0.167  0.500  0.333
  0.167  0.500  0.333
    occupations:
  0.937  0.000  0.000
  0.000  0.937  0.000
  0.000  0.000  0.937
   spin  2
    eigenvalues: 
  0.937  0.937  0.938
    eigenvectors:
  0.000  0.666  0.334
  0.500  0.167  0.333
  0.500  0.167  0.333
    occupations:
  0.937  0.000  0.000
  0.000  0.937  0.000
  0.000  0.000  0.937
atomic mag. moment =     0.000000
atom   10   Tr[ns(na)] (up, down, total) =   2.81114  2.81114  5.62228
   spin  1
    eigenvalues: 
  0.937  0.937  0.938
    eigenvectors:
  0.480  0.186  0.333
  0.519  0.148  0.333
  0.001  0.666  0.333
    occupations:
  0.937  0.000  0.000
  0.000  0.937  0.000
  0.000  0.000  0.937
   spin  2
    eigenvalues: 
  0.937  0.937  0.938
    eigenvectors:
  0.461  0.206  0.333
  0.536  0.130  0.333
  0.003  0.664  0.333
    occupations:
  0.937  0.000  0.000
  0.000  0.937  0.000
  0.000  0.000  0.937
atomic mag. moment =     0.000001
atom   11   Tr[ns(na)] (up, down, total) =   2.81114  2.81114  5.62228
   spin  1
    eigenvalues: 
  0.937  0.937  0.938
    eigenvectors:
  0.167  0.500  0.333
  0.167  0.500  0.333
  0.667  0.000  0.333
    occupations:
  0.937  0.000  0.000
  0.000  0.937  0.000
  0.000  0.000  0.937
   spin  2
    eigenvalues: 
  0.937  0.937  0.938
    eigenvectors:
  0.500  0.167  0.333
  0.500  0.167  0.333
  0.000  0.666  0.334
    occupations:
  0.937  0.000  0.000
  0.000  0.937  0.000
  0.000  0.000  0.937
atomic mag. moment =     0.000000
atom   12   Tr[ns(na)] (up, down, total) =   2.81114  2.81114  5.62228
   spin  1
    eigenvalues: 
  0.937  0.937  0.938
    eigenvectors:
  0.167  0.500  0.333
  0.667  0.000  0.333
  0.167  0.500  0.333
    occupations:
  0.937  0.000  0.000
  0.000  0.937  0.000
  0.000  0.000  0.937
   spin  2
    eigenvalues: 
  0.937  0.937  0.938
    eigenvectors:
  0.500  0.167  0.333
  0.000  0.666  0.334
  0.500  0.167  0.333
    occupations:
  0.937  0.000  0.000
  0.000  0.937  0.000
  0.000  0.000  0.937
atomic mag. moment =     0.000000
atom   13   Tr[ns(na)] (up, down, total) =   2.81114  2.81114  5.62228
   spin  1
    eigenvalues: 
  0.937  0.937  0.938
    eigenvectors:
  0.167  0.500  0.333
  0.167  0.500  0.333
  0.667  0.000  0.333
    occupations:
  0.937  0.000  0.000
  0.000  0.937  0.000
  0.000  0.000  0.937
   spin  2
    eigenvalues: 
  0.937  0.937  0.938
    eigenvectors:
  0.500  0.167  0.333
  0.500  0.167  0.333
  0.000  0.666  0.334
    occupations:
  0.937  0.000  0.000
  0.000  0.937  0.000
  0.000  0.000  0.937
atomic mag. moment =     0.000000
atom   14   Tr[ns(na)] (up, down, total) =   2.81114  2.81114  5.62228
   spin  1
    eigenvalues: 
  0.937  0.937  0.938
    eigenvectors:
  0.167  0.500  0.333
  0.667  0.000  0.333
  0.167  0.500  0.333
    occupations:
  0.937  0.000  0.000
  0.000  0.937  0.000
  0.000  0.000  0.937
   spin  2
    eigenvalues: 
  0.937  0.937  0.938
    eigenvectors:
  0.500  0.167  0.333
  0.000  0.666  0.334
  0.500  0.167  0.333
    occupations:
  0.937  0.000  0.000
  0.000  0.937  0.000
  0.000  0.000  0.937
atomic mag. moment =     0.000000
atom   15   Tr[ns(na)] (up, down, total) =   2.81114  2.81114  5.62228
   spin  1
    eigenvalues: 
  0.937  0.937  0.938
    eigenvectors:
  0.434  0.233  0.333
  0.558  0.108  0.333
  0.008  0.659  0.333
    occupations:
  0.937  0.000  0.000
  0.000  0.937  0.000
  0.000  0.000  0.937
   spin  2
    eigenvalues: 
  0.937  0.937  0.938
    eigenvectors:
  0.419  0.248  0.333
  0.569  0.097  0.333
  0.011  0.655  0.333
    occupations:
  0.937  0.000  0.000
  0.000  0.937  0.000
  0.000  0.000  0.937
atomic mag. moment =     0.000001
atom   16   Tr[ns(na)] (up, down, total) =   2.81114  2.81114  5.62228
   spin  1
    eigenvalues: 
  0.937  0.937  0.938
    eigenvectors:
  0.667  0.000  0.333
  0.167  0.500  0.333
  0.167  0.500  0.333
    occupations:
  0.937  0.000  0.000
  0.000  0.937  0.000
  0.000  0.000  0.937
   spin  2
    eigenvalues: 
  0.937  0.937  0.938
    eigenvectors:
  0.000  0.666  0.334
  0.500  0.167  0.333
  0.500  0.167  0.333
    occupations:
  0.937  0.000  0.000
  0.000  0.937  0.000
  0.000  0.000  0.937
atomic mag. moment =     0.000000
N of occupied +U levels = 114.6264869
 --- exit write_ns ---

 ------ SPIN UP ------------


          k = 0.0000 0.0000 0.0000 (  2733 PWs)   bands (ev):

    -8.0785  -6.6875  -6.6871  -6.6871  -6.6871  -6.6187  -6.6187  -6.6187
     4.0281   4.0281   4.0281   4.0330   5.3280   5.3280   5.3280   6.5219
     6.5219   6.5314   6.5314   6.5314   6.5626   6.5626   6.5626   7.9527
     7.9527   7.9527   7.9568   7.9568   7.9568   8.8313   8.8313   8.8313
     9.2552   9.2552   9.2624   9.5587   9.5587   9.6941   9.8760   9.8760
     9.9430   9.9430   9.9430  10.2283  10.2283  10.2283  10.4853  10.4853
    10.4853  10.5994  10.5994  10.5994  10.9111  10.9111  11.0393  11.0393
    11.0393  11.1790  11.2634  11.2634  11.2634  11.3829  11.3829  11.3829
    13.5444  13.5444  13.6036  13.6036  13.6036  13.6877  13.6877  13.6877
    13.7598  17.7995  17.7999  17.7999  18.3915

          k =-0.1250 0.1250 0.1250 (  2743 PWs)   bands (ev):

    -7.9029  -6.9263  -6.6810  -6.6809  -6.6808  -6.6322  -6.6320  -6.6320
     4.3462   4.3462   4.3510   4.6035   5.3429   5.3429   5.3450   6.4323
     6.4406   6.4406   6.6294   6.6725   6.6725   6.6927   6.7363   7.1941
     7.1942   7.2333   7.6860   7.6860   7.6987   7.9653   8.3985   8.4064
     9.2796   9.3365   9.3365   9.6768   9.8229   9.9601  10.0417  10.0417
    10.1098  10.2184  10.2184  10.2474  10.3723  10.5192  10.5399  10.5399
    10.5503  10.6348  10.6869  10.6869  10.8967  10.9924  11.1144  11.1144
    11.1172  11.1775  11.2582  11.2582  11.2797  11.3131  11.3420  11.3420
    13.2118  13.2781  13.2781  13.2919  13.3820  13.4198  13.4198  13.4641
    14.7667  17.5939  18.6770  18.6786  18.6786

          k = 0.2500-0.2500-0.2500 (  2764 PWs)   bands (ev):

    -7.4454  -7.4454  -6.6642  -6.6642  -6.6602  -6.6602  -6.6558  -6.6558
     5.0499   5.0499   5.0644   5.0644   5.0712   5.0712   6.0918   6.0918
     6.3226   6.3226   6.3877   6.3877   6.4627   6.4627   6.8538   6.8539
     7.0123   7.0123   7.3113   7.3113   7.4843   7.4843   7.6355   7.6355
     9.6323   9.6324   9.8169   9.8169   9.8870   9.8870  10.0222  10.0222
    10.1586  10.1586  10.2211  10.2212  10.5326  10.5326  10.6420  10.6420
    10.6587  10.6587  10.8693  10.8693  10.9629  10.9630  11.2433  11.2433
    11.2521  11.2521  11.2968  11.2968  11.3292  11.3292  11.4318  11.4319
    13.0374  13.0374  13.0438  13.0438  13.0519  13.0519  13.0623  13.0623
    16.4827  16.4827  19.6528  19.6528  19.7119

          k = 0.0000 0.0000 0.2500 (  2706 PWs)   bands (ev):

    -7.8497  -6.8065  -6.7519  -6.7517  -6.7517  -6.7513  -6.5653  -6.5653
     4.4894   4.4894   4.4904   4.4946   5.2309   5.5189   5.5189   6.5258
     6.5258   6.5461   6.5828   6.5900   6.6188   6.6188   6.6776   7.0595
     7.0595   7.1660   7.1660   7.4594   7.9686   7.9737   8.6485   8.6576
     8.9538   9.5324   9.6266   9.6266   9.8121   9.9777  10.0548  10.0549
    10.0944  10.1100  10.1839  10.2769  10.2769  10.3951  10.4089  10.5432
    10.5432  10.6119  10.6119  10.6571  10.9098  11.0070  11.0070  11.0482
    11.0543  11.1678  11.2403  11.2926  11.2926  11.3455  11.3455  11.3772
    12.8758  13.0371  13.0371  13.0404  13.5217  13.5650  13.6426  13.6426
    15.2134  18.5669  18.5680  18.5680  18.5684

          k = 0.3750-0.3750-0.1250 (  2734 PWs)   bands (ev):

    -7.5001  -7.1696  -6.9647  -6.7688  -6.7686  -6.5938  -6.5541  -6.5538
     4.9614   4.9635   4.9752   5.3040   5.4213   5.4962   5.5177   6.1727
     6.2074   6.2333   6.2623   6.5859   6.5882   6.7421   6.7460   6.8581
     6.8867   6.9196   6.9901   7.3540   7.3730   7.7174   7.7571   8.0119
     9.4542   9.6491   9.8202   9.8927   9.9537   9.9663  10.0347  10.1362
    10.1389  10.1666  10.2084  10.2857  10.3136  10.3201  10.4755  10.5094
    10.7303  10.7360  10.7398  10.7518  10.8756  10.9038  11.0376  11.0755
    11.1654  11.1929  11.2232  11.2548  11.3297  11.3334  11.3515  11.4079
    12.7364  12.7802  12.8322  12.9286  13.2333  13.2563  13.3621  13.4309
    16.6942  17.6020  18.6704  19.3624  19.3640

          k = 0.2500-0.2500 0.0000 (  2742 PWs)   bands (ev):

    -7.6380  -7.0145  -7.0145  -6.7180  -6.7180  -6.6008  -6.6005  -6.5444
     4.7685   4.7736   5.0650   5.0651   5.2609   5.2609   5.6981   5.9615
     6.2832   6.2995   6.5244   6.7165   6.7426   6.7426   6.9111   6.9111
     6.9278   7.1565   7.1565   7.1861   7.4479   7.4479   7.6284   8.1211
     9.6564   9.6564   9.7878   9.8473   9.9037   9.9037  10.0425  10.1098
    10.1316  10.2246  10.2276  10.2276  10.2276  10.3601  10.3601  10.5140
    10.7168  10.7490  10.7490  10.8257  10.9011  11.0937  11.0937  11.1123
    11.2071  11.2071  11.2299  11.2411  11.2767  11.3430  11.4034  11.4034
    13.0400  13.0444  13.0553  13.0553  13.1119  13.1494  13.1494  13.2814
    16.0075  18.0612  18.0612  19.3780  19.3780

          k = 0.0000 0.0000-0.5000 (  2762 PWs)   bands (ev):

    -7.3086  -7.3086  -6.8144  -6.8144  -6.8142  -6.8142  -6.5110  -6.5110
     5.0176   5.0176   5.0247   5.0247   5.7672   5.7672   6.0978   6.0978
     6.1036   6.1036   6.4017   6.4017   6.6493   6.6493   6.6815   6.6815
     6.7210   6.7210   6.7273   6.7273   8.1474   8.1474   8.1585   8.1585
     9.2480   9.2481   9.9486   9.9486  10.0289  10.0289  10.0441  10.0441
    10.0471  10.0472  10.1681  10.1682  10.3483  10.3483  10.4946  10.4946
    10.5172  10.5173  10.5805  10.5806  10.9102  10.9102  11.0033  11.0033
    11.1466  11.1466  11.2249  11.2249  11.3345  11.3345  11.3390  11.3390
    12.4599  12.4599  12.7180  12.7180  13.5157  13.5157  13.6156  13.6156
    17.6668  17.6668  19.2518  19.2518  19.2526

          k = 0.0000 0.2500-0.5000 (  2740 PWs)   bands (ev):

    -7.1496  -7.1492  -7.1492  -7.1490  -6.5788  -6.5753  -6.5753  -6.5716
     5.2791   5.2791   5.2805   5.3264   5.3783   5.5402   5.5402   5.6518
     6.2220   6.2520   6.2520   6.2836   6.6180   6.6180   6.6313   6.7591
     6.8987   7.2657   7.2657   7.4598   7.4755   7.5034   7.5034   7.5550
     9.7097   9.7369   9.7369   9.8048   9.9849  10.0358  10.0358  10.0678
    10.1162  10.2700  10.2868  10.2868  10.3432  10.3432  10.3973  10.4627
    10.6139  10.6614  10.6614  10.6883  10.9459  10.9459  10.9667  10.9883
    11.1718  11.1836  11.1836  11.2778  11.2932  11.2973  11.3639  11.3639
    12.7722  12.8871  12.8871  13.0008  13.1524  13.1967  13.1967  13.2415
    18.0173  18.0362  18.0362  18.0565  20.8590

          k = 0.1250 0.1250 0.1250 (  2743 PWs)   bands (ev):

    -7.9030  -6.9266  -6.6817  -6.6817  -6.6817  -6.6311  -6.6311  -6.6311
     4.3454   4.3454   4.3454   4.6085   5.3418   5.3418   5.3418   6.4771
     6.4771   6.4771   6.6205   6.6205   6.6205   6.6946   6.6946   7.2111
     7.2111   7.2111   7.7040   7.7040   7.7040   7.9714   8.4506   8.4506
     9.2610   9.2610   9.2610   9.6172   9.6172  10.0009  10.0642  10.0643
    10.0643  10.2752  10.2752  10.2752  10.6019  10.6019  10.6019  10.6212
    10.6212  10.7226  10.7226  10.7226  10.9133  10.9133  10.9395  10.9395
    10.9395  11.0321  11.2557  11.2557  11.2557  11.3932  11.3932  11.3932
    13.3326  13.3326  13.3489  13.3489  13.3489  13.3564  13.3564  13.3564
    14.7670  17.5954  18.6756  18.6756  18.6756

          k =-0.2500-0.2500-0.2500 (  2764 PWs)   bands (ev):

    -7.4499  -7.4412  -6.6701  -6.6701  -6.6701  -6.6498  -6.6498  -6.6498
     5.0095   5.0095   5.0095   5.1107   5.1107   5.1107   6.0775   6.1164
     6.2586   6.2586   6.2586   6.6890   6.6890   6.6890   6.7486   6.7486
     6.7486   6.9783   6.9783   7.4453   7.4454   7.4454   7.8620   7.8620
     9.4900   9.4900   9.4900   9.6732   9.6732  10.1156  10.1201  10.1202
    10.1202  10.4484  10.4484  10.4484  10.5062  10.5062  10.5062  10.7257
    10.7257  10.8420  10.8420  10.8420  10.8701  11.0556  11.0556  11.0556
    11.2440  11.2440  11.2440  11.2991  11.2991  11.4010  11.4010  11.4010
    13.0386  13.0386  13.0386  13.0551  13.0551  13.0701  13.0701  13.0701
    16.4097  16.5598  19.6311  19.6311  19.6311

          k =-0.3750-0.1250-0.3750 (  2734 PWs)   bands (ev):

    -7.5002  -7.1697  -6.9648  -6.7688  -6.7688  -6.5936  -6.5537  -6.5537
     4.9610   4.9708   4.9708   5.2820   5.4359   5.4966   5.4966   6.2195
     6.2250   6.2250   6.2612   6.6512   6.6641   6.6641   6.6952   6.6952
     6.8264   7.0779   7.0779   7.2669   7.3778   7.7509   7.7588   8.0484
     9.3521   9.5423   9.7590   9.7590   9.7830  10.0584  10.0946  10.0946
    10.2857  10.2861  10.4194  10.4194  10.4404  10.5523  10.5524  10.5581
    10.5682  10.6487  10.6493  10.6493  10.8403  10.8791  10.8791  10.9583
    11.0694  11.2412  11.2729  11.2998  11.2998  11.3588  11.3588  11.4214
    12.6916  12.8375  12.8827  12.8828  13.2791  13.3335  13.3412  13.3412
    16.6936  17.6046  18.6699  19.3599  19.3599

          k = 0.3750-0.1250 0.3750 (  2734 PWs)   bands (ev):

    -7.5001  -7.1697  -6.9648  -6.7686  -6.7686  -6.5939  -6.5540  -6.5540
     4.9673   4.9715   4.9715   5.2417   5.4969   5.5014   5.5014   6.1198
     6.2271   6.2271   6.3424   6.5654   6.5654   6.6588   6.8185   6.8185
     6.8266   7.0393   7.0393   7.1536   7.5013   7.7428   7.7695   7.9970
     9.3797   9.5555   9.9422   9.9422  10.0196  10.0196  10.0413  10.0429
    10.0551  10.1760  10.2124  10.2125  10.3971  10.4415  10.4965  10.4965
    10.6576  10.6958  10.6959  10.7104  10.8945  10.9470  11.0941  11.0941
    11.2146  11.2146  11.2308  11.2679  11.2752  11.2770  11.3467  11.3467
    12.7386  12.7976  12.8800  12.8800  13.2528  13.3405  13.3405  13.3521
    16.6937  17.6030  18.6722  19.3607  19.3607

          k =-0.2500 0.0000-0.2500 (  2742 PWs)   bands (ev):

    -7.6381  -7.0147  -7.0145  -6.7183  -6.7183  -6.6001  -6.6001  -6.5444
     4.7690   4.7690   5.0740   5.0792   5.2399   5.2399   5.6999   5.9644
     6.3127   6.3127   6.5830   6.6742   6.6743   6.7877   6.8546   6.9195
     7.0129   7.1590   7.1590   7.2019   7.2019   7.4838   7.8305   8.1190
     9.5554   9.6072   9.6356   9.6356   9.7730  10.0730  10.0731  10.1296
    10.2415  10.2415  10.3046  10.3843  10.4463  10.5568  10.5588  10.5588
    10.6309  10.6632  10.6632  10.7414  10.7632  10.8192  11.0481  11.0481
    11.1034  11.2691  11.2691  11.3382  11.3683  11.3683  11.3839  11.4048
    13.0429  13.0448  13.0526  13.0526  13.0620  13.2046  13.2046  13.2340
    16.0087  18.0604  18.0622  19.3735  19.3735

 ------ SPIN DOWN ----------


          k = 0.0000 0.0000 0.0000 (  2733 PWs)   bands (ev):

    -8.0785  -6.6875  -6.6871  -6.6871  -6.6871  -6.6187  -6.6187  -6.6187
     4.0281   4.0281   4.0281   4.0330   5.3280   5.3280   5.3280   6.5219
     6.5219   6.5314   6.5314   6.5314   6.5626   6.5626   6.5626   7.9527
     7.9527   7.9527   7.9568   7.9568   7.9568   8.8313   8.8313   8.8313
     9.2552   9.2552   9.2624   9.5587   9.5587   9.6941   9.8760   9.8760
     9.9430   9.9430   9.9430  10.2283  10.2283  10.2283  10.4853  10.4853
    10.4853  10.5994  10.5994  10.5994  10.9111  10.9111  11.0393  11.0393
    11.0393  11.1790  11.2634  11.2634  11.2634  11.3828  11.3828  11.3829
    13.5444  13.5444  13.6036  13.6036  13.6036  13.6877  13.6877  13.6877
    13.7598  17.7976  17.7999  17.7999  18.3912

          k =-0.1250 0.1250 0.1250 (  2743 PWs)   bands (ev):

    -7.9029  -6.9263  -6.6810  -6.6809  -6.6808  -6.6322  -6.6320  -6.6320
     4.3462   4.3462   4.3510   4.6035   5.3429   5.3429   5.3450   6.4323
     6.4406   6.4406   6.6294   6.6725   6.6725   6.6927   6.7364   7.1941
     7.1941   7.2333   7.6860   7.6860   7.6987   7.9653   8.3985   8.4064
     9.2796   9.3365   9.3366   9.6769   9.8229   9.9601  10.0417  10.0417
    10.1098  10.2184  10.2184  10.2474  10.3723  10.5192  10.5399  10.5399
    10.5503  10.6348  10.6869  10.6869  10.8967  10.9924  11.1144  11.1144
    11.1172  11.1775  11.2581  11.2581  11.2797  11.3131  11.3420  11.3420
    13.2118  13.2781  13.2781  13.2919  13.3820  13.4198  13.4198  13.4641
    14.7667  17.5939  18.6786  18.6786  18.9415

          k = 0.2500-0.2500-0.2500 (  2764 PWs)   bands (ev):

    -7.4454  -7.4454  -6.6642  -6.6642  -6.6602  -6.6602  -6.6558  -6.6558
     5.0499   5.0499   5.0644   5.0644   5.0712   5.0712   6.0918   6.0918
     6.3226   6.3226   6.3877   6.3877   6.4627   6.4627   6.8539   6.8539
     7.0123   7.0123   7.3113   7.3113   7.4843   7.4843   7.6355   7.6355
     9.6324   9.6324   9.8169   9.8169   9.8870   9.8870  10.0222  10.0222
    10.1586  10.1586  10.2211  10.2212  10.5326  10.5326  10.6420  10.6420
    10.6587  10.6587  10.8693  10.8693  10.9630  10.9630  11.2433  11.2433
    11.2521  11.2521  11.2968  11.2968  11.3292  11.3292  11.4318  11.4319
    13.0373  13.0374  13.0438  13.0438  13.0519  13.0519  13.0623  13.0623
    16.4827  16.4827  19.6528  19.6528  19.7119

          k = 0.0000 0.0000 0.2500 (  2706 PWs)   bands (ev):

    -7.8497  -6.8065  -6.7519  -6.7517  -6.7517  -6.7513  -6.5653  -6.5653
     4.4894   4.4894   4.4904   4.4946   5.2309   5.5189   5.5189   6.5258
     6.5258   6.5461   6.5828   6.5900   6.6188   6.6188   6.6776   7.0595
     7.0595   7.1660   7.1660   7.4594   7.9686   7.9737   8.6485   8.6576
     8.9538   9.5324   9.6266   9.6266   9.8121   9.9777  10.0549  10.0549
    10.0944  10.1100  10.1839  10.2769  10.2769  10.3951  10.4089  10.5432
    10.5432  10.6119  10.6119  10.6571  10.9098  11.0070  11.0070  11.0482
    11.0543  11.1678  11.2403  11.2926  11.2926  11.3455  11.3455  11.3772
    12.8758  13.0370  13.0371  13.0404  13.5217  13.5650  13.6426  13.6426
    15.2134  18.5669  18.5680  18.5680  18.5685

          k = 0.3750-0.3750-0.1250 (  2734 PWs)   bands (ev):

    -7.5001  -7.1696  -6.9647  -6.7688  -6.7686  -6.5938  -6.5541  -6.5538
     4.9614   4.9635   4.9752   5.3040   5.4213   5.4962   5.5177   6.1727
     6.2074   6.2333   6.2623   6.5859   6.5882   6.7421   6.7460   6.8581
     6.8867   6.9196   6.9901   7.3540   7.3730   7.7174   7.7571   8.0119
     9.4542   9.6491   9.8202   9.8928   9.9537   9.9663  10.0348  10.1362
    10.1389  10.1666  10.2084  10.2857  10.3136  10.3201  10.4755  10.5094
    10.7303  10.7360  10.7398  10.7518  10.8756  10.9038  11.0376  11.0755
    11.1654  11.1929  11.2232  11.2548  11.3297  11.3334  11.3515  11.4079
    12.7364  12.7802  12.8322  12.9286  13.2333  13.2563  13.3620  13.4309
    16.6942  17.6020  18.6704  19.3624  19.3640

          k = 0.2500-0.2500 0.0000 (  2742 PWs)   bands (ev):

    -7.6380  -7.0145  -7.0145  -6.7180  -6.7180  -6.6008  -6.6005  -6.5444
     4.7685   4.7736   5.0650   5.0650   5.2609   5.2609   5.6981   5.9615
     6.2833   6.2995   6.5244   6.7165   6.7426   6.7426   6.9111   6.9111
     6.9278   7.1565   7.1565   7.1861   7.4479   7.4479   7.6284   8.1211
     9.6564   9.6564   9.7878   9.8473   9.9037   9.9037  10.0425  10.1098
    10.1316  10.2246  10.2276  10.2276  10.2276  10.3601  10.3601  10.5140
    10.7168  10.7490  10.7490  10.8257  10.9011  11.0937  11.0937  11.1123
    11.2071  11.2071  11.2299  11.2411  11.2767  11.3430  11.4034  11.4034
    13.0400  13.0444  13.0553  13.0553  13.1119  13.1494  13.1494  13.2814
    16.0075  18.0612  18.0612  19.3780  19.3780

          k = 0.0000 0.0000-0.5000 (  2762 PWs)   bands (ev):

    -7.3086  -7.3086  -6.8144  -6.8144  -6.8142  -6.8142  -6.5110  -6.5110
     5.0176   5.0176   5.0247   5.0247   5.7672   5.7672   6.0978   6.0978
     6.1036   6.1036   6.4017   6.4017   6.6493   6.6493   6.6815   6.6815
     6.7210   6.7210   6.7273   6.7273   8.1474   8.1474   8.1585   8.1585
     9.2480   9.2481   9.9486   9.9486  10.0289  10.0289  10.0441  10.0441
    10.0472  10.0472  10.1681  10.1681  10.3483  10.3483  10.4946  10.4946
    10.5173  10.5173  10.5805  10.5806  10.9102  10.9103  11.0033  11.0033
    11.1466  11.1466  11.2248  11.2249  11.3345  11.3345  11.3390  11.3390
    12.4599  12.4599  12.7180  12.7180  13.5157  13.5157  13.6156  13.6157
    17.6668  17.6668  19.2518  19.2518  19.2526

          k = 0.0000 0.2500-0.5000 (  2740 PWs)   bands (ev):

    -7.1496  -7.1492  -7.1492  -7.1490  -6.5788  -6.5753  -6.5753  -6.5716
     5.2791   5.2791   5.2805   5.3264   5.3783   5.5402   5.5402   5.6518
     6.2220   6.2520   6.2520   6.2836   6.6180   6.6180   6.6313   6.7591
     6.8987   7.2657   7.2657   7.4598   7.4755   7.5034   7.5034   7.5550
     9.7097   9.7370   9.7370   9.8048   9.9849  10.0358  10.0358  10.0679
    10.1163  10.2700  10.2868  10.2868  10.3432  10.3432  10.3973  10.4627
    10.6139  10.6614  10.6614  10.6883  10.9459  10.9459  10.9667  10.9883
    11.1718  11.1836  11.1836  11.2778  11.2932  11.2973  11.3639  11.3639
    12.7722  12.8871  12.8871  13.0008  13.1524  13.1967  13.1967  13.2415
    18.0173  18.0362  18.0362  18.0565  20.8590

          k = 0.1250 0.1250 0.1250 (  2743 PWs)   bands (ev):

    -7.9030  -6.9266  -6.6817  -6.6817  -6.6817  -6.6311  -6.6311  -6.6311
     4.3454   4.3454   4.3454   4.6085   5.3418   5.3418   5.3418   6.4771
     6.4771   6.4771   6.6205   6.6205   6.6205   6.6946   6.6946   7.2111
     7.2111   7.2111   7.7040   7.7040   7.7040   7.9714   8.4506   8.4506
     9.2610   9.2610   9.2610   9.6173   9.6173  10.0009  10.0643  10.0643
    10.0643  10.2752  10.2752  10.2752  10.6019  10.6019  10.6019  10.6212
    10.6212  10.7226  10.7226  10.7226  10.9133  10.9133  10.9395  10.9395
    10.9395  11.0321  11.2557  11.2557  11.2557  11.3932  11.3932  11.3932
    13.3326  13.3326  13.3489  13.3489  13.3489  13.3563  13.3564  13.3564
    14.7670  17.5954  18.6756  18.6756  18.6756

          k =-0.2500-0.2500-0.2500 (  2764 PWs)   bands (ev):

    -7.4499  -7.4412  -6.6701  -6.6701  -6.6701  -6.6498  -6.6498  -6.6498
     5.0095   5.0095   5.0095   5.1107   5.1107   5.1107   6.0775   6.1164
     6.2586   6.2586   6.2586   6.6890   6.6890   6.6890   6.7486   6.7486
     6.7486   6.9783   6.9783   7.4453   7.4454   7.4454   7.8620   7.8620
     9.4900   9.4900   9.4900   9.6732   9.6732  10.1156  10.1202  10.1202
    10.1202  10.4484  10.4484  10.4484  10.5062  10.5062  10.5062  10.7257
    10.7257  10.8420  10.8420  10.8420  10.8701  11.0556  11.0556  11.0556
    11.2440  11.2440  11.2440  11.2991  11.2991  11.4010  11.4010  11.4010
    13.0386  13.0386  13.0386  13.0551  13.0551  13.0701  13.0701  13.0701
    16.4097  16.5598  19.6311  19.6311  19.6311

          k =-0.3750-0.1250-0.3750 (  2734 PWs)   bands (ev):

    -7.5002  -7.1697  -6.9648  -6.7688  -6.7688  -6.5936  -6.5538  -6.5537
     4.9610   4.9708   4.9708   5.2820   5.4359   5.4966   5.4966   6.2195
     6.2250   6.2250   6.2612   6.6512   6.6641   6.6641   6.6952   6.6952
     6.8264   7.0779   7.0779   7.2669   7.3778   7.7509   7.7588   8.0484
     9.3521   9.5423   9.7590   9.7590   9.7831  10.0584  10.0946  10.0946
    10.2857  10.2861  10.4194  10.4194  10.4404  10.5523  10.5524  10.5581
    10.5682  10.6487  10.6493  10.6493  10.8403  10.8791  10.8791  10.9583
    11.0694  11.2412  11.2729  11.2998  11.2998  11.3588  11.3588  11.4214
    12.6916  12.8375  12.8827  12.8828  13.2791  13.3335  13.3412  13.3412
    16.6936  17.6046  18.6699  19.3599  19.3599

          k = 0.3750-0.1250 0.3750 (  2734 PWs)   bands (ev):

    -7.5001  -7.1697  -6.9648  -6.7686  -6.7686  -6.5939  -6.5540  -6.5540
     4.9673   4.9715   4.9715   5.2417   5.4969   5.5014   5.5014   6.1198
     6.2271   6.2271   6.3424   6.5654   6.5654   6.6588   6.8185   6.8185
     6.8266   7.0393   7.0393   7.1536   7.5013   7.7428   7.7695   7.9970
     9.3797   9.5555   9.9422   9.9422  10.0196  10.0196  10.0413  10.0429
    10.0551  10.1761  10.2125  10.2125  10.3971  10.4415  10.4965  10.4965
    10.6576  10.6958  10.6959  10.7104  10.8945  10.9470  11.0941  11.0941
    11.2146  11.2146  11.2308  11.2679  11.2751  11.2770  11.3467  11.3467
    12.7386  12.7976  12.8799  12.8800  13.2528  13.3405  13.3405  13.3521
    16.6937  17.6030  18.6722  19.3607  19.3607

          k =-0.2500 0.0000-0.2500 (  2742 PWs)   bands (ev):

    -7.6381  -7.0147  -7.0145  -6.7183  -6.7183  -6.6001  -6.6001  -6.5444
     4.7690   4.7690   5.0740   5.0792   5.2399   5.2399   5.6999   5.9644
     6.3127   6.3127   6.5830   6.6743   6.6743   6.7877   6.8546   6.9195
     7.0129   7.1590   7.1590   7.2019   7.2019   7.4838   7.8305   8.1190
     9.5554   9.6072   9.6356   9.6356   9.7730  10.0731  10.0731  10.1296
    10.2415  10.2415  10.3046  10.3843  10.4463  10.5568  10.5588  10.5588
    10.6309  10.6632  10.6632  10.7414  10.7632  10.8192  11.0481  11.0481
    11.1034  11.2690  11.2691  11.3382  11.3683  11.3683  11.3839  11.4048
    13.0429  13.0448  13.0526  13.0526  13.0620  13.2046  13.2046  13.2340
    16.0087  18.0604  18.0622  19.3735  19.3735

     the Fermi energy is    11.9555 ev

!    total energy              =    -942.01610086 Ry
     Harris-Foulkes estimate   =    -942.01602753 Ry
     estimated scf accuracy    <          8.6E-09 Ry

     The total energy is the sum of the following terms:

     one-electron contribution =     -56.32786649 Ry
     hartree contribution      =     175.70942606 Ry
     xc contribution           =    -297.54025459 Ry
     ewald contribution        =    -763.85740583 Ry
     Hubbard energy            =       0.00000000 Ry
     smearing contrib. (-TS)   =       0.00000000 Ry

     total magnetization       =     0.00 Bohr mag/cell
     absolute magnetization    =    12.29 Bohr mag/cell

     convergence has been achieved in  12 iterations

     Writing output data file nio.save
 
     init_run     :     19.35s CPU     21.52s WALL (       1 calls)
     electrons    :    434.25s CPU    461.02s WALL (       1 calls)

     Called by init_run:
     wfcinit      :      5.54s CPU      6.54s WALL (       1 calls)
     potinit      :      1.27s CPU      1.47s WALL (       1 calls)

     Called by electrons:
     c_bands      :    147.04s CPU    156.47s WALL (      12 calls)
     sum_band     :    157.94s CPU    161.99s WALL (      12 calls)
     v_of_rho     :     12.15s CPU     13.68s WALL (      13 calls)
     newd         :    122.60s CPU    134.61s WALL (      13 calls)
     mix_rho      :      2.03s CPU      2.24s WALL (      12 calls)

     Called by c_bands:
     init_us_2    :      1.69s CPU      1.77s WALL (     182 calls)
     cegterg      :    140.00s CPU    148.37s WALL (      84 calls)

     Called by *egterg:
     h_psi        :    110.01s CPU    114.85s WALL (     294 calls)
     s_psi        :      9.14s CPU      9.15s WALL (     301 calls)
     g_psi        :      0.50s CPU      0.47s WALL (     203 calls)
     cdiaghg      :      6.28s CPU      6.29s WALL (     287 calls)

     Called by h_psi:
     add_vuspsi   :      8.76s CPU      8.77s WALL (     294 calls)

     General routines
     calbec       :     15.87s CPU     15.83s WALL (     763 calls)
     fft          :     10.67s CPU     12.08s WALL (     393 calls)
     ffts         :      0.12s CPU      0.16s WALL (      50 calls)
     fftw         :     62.22s CPU     68.38s WALL (   35904 calls)
     interpolate  :      1.84s CPU      2.34s WALL (      50 calls)
     davcio       :      0.01s CPU      2.80s WALL (     532 calls)
 
     Parallel routines
     fft_scatter  :     13.83s CPU     15.83s WALL (   36347 calls)
     EXX routines
 
     PWSCF        :  7m33.96s CPU     8m 3.05s WALL

 
   This run was terminated on:  16:29:37  16Jun2012            

=------------------------------------------------------------------------------=
   JOB DONE.
=------------------------------------------------------------------------------=
