
     Program PWSCF v.5.0        starts on 16Jun2012 at 16:53:21 

     This program is part of the open-source Quantum ESPRESSO suite
     for quantum simulation of materials; please cite
         "P. Giannozzi et al., J. Phys.:Condens. Matter 21 395502 (2009);
          URL http://www.quantum-espresso.org", 
     in publications or presentations arising from this work. More details at
     http://www.quantum-espresso.org/quote.php

     Parallel version (MPI), running on     4 processors
     K-points division:     npool     =    4

     Current dimensions of program PWSCF are:
     Max number of different atomic species (ntypx) = 10
     Max number of k-points (npk) =  40000
     Max angular momentum in pseudopotentials (lmaxx) =  3
     Waiting for input...
     Reading input from standard input
               file Ni.pbe-nd-rrkjus.UPF: wavefunction(s)  4S renormalized
               file Ni.pbe-nd-rrkjus.UPF: wavefunction(s)  4S renormalized
               file O.pbe-rrkjus.UPF: wavefunction(s)  2S renormalized
               file O.pbe-rrkjus.UPF: wavefunction(s)  2S renormalized

     Subspace diagonalization in iterative solution of the eigenvalue problem:
     a serial algorithm will be used

 
     G-vector sticks info
     --------------------
     sticks:   dense  smooth     PW     G-vecs:    dense   smooth      PW
     Sum        2587    1039    301                86547    22075    3479
 


     bravais-lattice index     =            0
     lattice parameter (alat)  =       7.9000  a.u.
     unit-cell volume          =     986.0780 (a.u.)^3
     number of atoms/cell      =           16
     number of atomic types    =            4
     number of electrons       =       128.00
     number of Kohn-Sham states=           77
     kinetic-energy cutoff     =      30.0000  Ry
     charge density cutoff     =     300.0000  Ry
     convergence threshold     =      1.0E-08
     mixing beta               =       0.3000
     number of iterations used =            8  plain     mixing
     Exchange-correlation      =  SLA  PW   PBE  PBE ( 1 4 3 4 0)
     EXX-fraction              =        0.00

     celldm(1)=   7.900000  celldm(2)=   0.000000  celldm(3)=   0.000000
     celldm(4)=   0.000000  celldm(5)=   0.000000  celldm(6)=   0.000000

     crystal axes: (cart. coord. in units of alat)
               a(1) = (   1.000000   1.000000   0.000000 )  
               a(2) = (   1.000000   0.000000   1.000000 )  
               a(3) = (   0.000000   1.000000   1.000000 )  

     reciprocal axes: (cart. coord. in units 2 pi/alat)
               b(1) = (  0.500000  0.500000 -0.500000 )  
               b(2) = (  0.500000 -0.500000  0.500000 )  
               b(3) = ( -0.500000  0.500000  0.500000 )  


     PseudoPot. # 1 for Ni read from file:
     ../pseudo/Ni.pbe-nd-rrkjus.UPF
     MD5 check sum: 8081f0a005c9a5470caab1a58e82ecb2
     Pseudo is Ultrasoft + core correction, Zval = 10.0
     Generated by new atomic code, or converted to UPF format
     Using radial grid of 1203 points,  6 beta functions with: 
                l(1) =   0
                l(2) =   0
                l(3) =   1
                l(4) =   1
                l(5) =   2
                l(6) =   2
     Q(r) pseudized with 0 coefficients 


     PseudoPot. # 2 for Ni read from file:
     ../pseudo/Ni.pbe-nd-rrkjus.UPF
     MD5 check sum: 8081f0a005c9a5470caab1a58e82ecb2
     Pseudo is Ultrasoft + core correction, Zval = 10.0
     Generated by new atomic code, or converted to UPF format
     Using radial grid of 1203 points,  6 beta functions with: 
                l(1) =   0
                l(2) =   0
                l(3) =   1
                l(4) =   1
                l(5) =   2
                l(6) =   2
     Q(r) pseudized with 0 coefficients 


     PseudoPot. # 3 for O  read from file:
     ../pseudo/O.pbe-rrkjus.UPF
     MD5 check sum: 390ba29e75625707450f3bd3f0eb6be9
     Pseudo is Ultrasoft, Zval =  6.0
     Generated by new atomic code, or converted to UPF format
     Using radial grid of 1269 points,  4 beta functions with: 
                l(1) =   0
                l(2) =   0
                l(3) =   1
                l(4) =   1
     Q(r) pseudized with 0 coefficients 


     PseudoPot. # 4 for O  read from file:
     ../pseudo/O.pbe-rrkjus.UPF
     MD5 check sum: 390ba29e75625707450f3bd3f0eb6be9
     Pseudo is Ultrasoft, Zval =  6.0
     Generated by new atomic code, or converted to UPF format
     Using radial grid of 1269 points,  4 beta functions with: 
                l(1) =   0
                l(2) =   0
                l(3) =   1
                l(4) =   1
     Q(r) pseudized with 0 coefficients 


     atomic species   valence    mass     pseudopotential
        Ni1           10.00     1.00000     Ni( 1.00)
        Ni2           10.00     1.00000     Ni( 1.00)
        O1             6.00     1.00000     O ( 1.00)
        O2             6.00     1.00000     O ( 1.00)

     Starting magnetic structure 
     atomic species   magnetization
        Ni1          0.500
        Ni2         -0.500
        O1           0.000
        O2           0.000
 -----
     simplified LDA+U calculation, Hubbard_lmax = 2
     atomic species  L   Hubbard U  Hubbard alpha
        Ni1          2    0.000000    0.000000
        Ni2          2    0.000000    0.000000
        O1           1    0.000000    0.000000
        O2           1    0.000000    0.000000
 -----

      6 Sym. Ops. (no inversion) found



   Cartesian axes

     site n.     atom                  positions (alat units)
         1           Ni1 tau(   1) = (   0.0000000   0.0000000  -0.5000000  )
         2           Ni1 tau(   2) = (   1.0000000   0.5000000   0.0000000  )
         3           Ni1 tau(   3) = (   0.5000000   1.0000000   0.0000000  )
         4           Ni1 tau(   4) = (   0.5000000   0.5000000   0.5000000  )
         5           Ni2 tau(   5) = (   0.5000000   0.5000000  -0.5000000  )
         6           Ni2 tau(   6) = (   0.5000000   0.0000000   0.0000000  )
         7           Ni2 tau(   7) = (   0.0000000   0.5000000   0.0000000  )
         8           Ni2 tau(   8) = (   1.0000000   1.0000000   0.5000000  )
         9           O1  tau(   9) = (   0.0000000   0.0000000   0.0000000  )
        10           O2  tau(  10) = (   0.5000000   0.5000000   0.0000000  )
        11           O2  tau(  11) = (   0.0000000   0.5000000   0.5000000  )
        12           O2  tau(  12) = (   0.5000000   0.0000000   0.5000000  )
        13           O2  tau(  13) = (   1.0000000   0.5000000   0.5000000  )
        14           O2  tau(  14) = (   0.5000000   1.0000000   0.5000000  )
        15           O2  tau(  15) = (   0.5000000   0.5000000   1.0000000  )
        16           O2  tau(  16) = (   1.0000000   1.0000000   1.0000000  )

     number of k points=    26  gaussian smearing, width (Ry)=  0.0100
                       cart. coord. in units 2pi/alat
        k(    1) = (   0.0000000   0.0000000   0.0000000), wk =   0.0156250
        k(    2) = (  -0.1250000   0.1250000   0.1250000), wk =   0.0937500
        k(    3) = (   0.2500000  -0.2500000  -0.2500000), wk =   0.0468750
        k(    4) = (   0.0000000   0.0000000   0.2500000), wk =   0.0937500
        k(    5) = (   0.3750000  -0.3750000  -0.1250000), wk =   0.1875000
        k(    6) = (   0.2500000  -0.2500000   0.0000000), wk =   0.0937500
        k(    7) = (   0.0000000   0.0000000  -0.5000000), wk =   0.0468750
        k(    8) = (   0.0000000   0.2500000  -0.5000000), wk =   0.0937500
        k(    9) = (   0.1250000   0.1250000   0.1250000), wk =   0.0312500
        k(   10) = (  -0.2500000  -0.2500000  -0.2500000), wk =   0.0156250
        k(   11) = (  -0.3750000  -0.3750000  -0.1250000), wk =   0.0937500
        k(   12) = (   0.3750000   0.3750000  -0.1250000), wk =   0.0937500
        k(   13) = (  -0.2500000  -0.2500000   0.0000000), wk =   0.0937500
        k(   14) = (   0.0000000   0.0000000   0.0000000), wk =   0.0156250
        k(   15) = (  -0.1250000   0.1250000   0.1250000), wk =   0.0937500
        k(   16) = (   0.2500000  -0.2500000  -0.2500000), wk =   0.0468750
        k(   17) = (   0.0000000   0.0000000   0.2500000), wk =   0.0937500
        k(   18) = (   0.3750000  -0.3750000  -0.1250000), wk =   0.1875000
        k(   19) = (   0.2500000  -0.2500000   0.0000000), wk =   0.0937500
        k(   20) = (   0.0000000   0.0000000  -0.5000000), wk =   0.0468750
        k(   21) = (   0.0000000   0.2500000  -0.5000000), wk =   0.0937500
        k(   22) = (   0.1250000   0.1250000   0.1250000), wk =   0.0312500
        k(   23) = (  -0.2500000  -0.2500000  -0.2500000), wk =   0.0156250
        k(   24) = (  -0.3750000  -0.3750000  -0.1250000), wk =   0.0937500
        k(   25) = (   0.3750000   0.3750000  -0.1250000), wk =   0.0937500
        k(   26) = (  -0.2500000  -0.2500000   0.0000000), wk =   0.0937500

     Dense  grid:    86547 G-vectors     FFT dimensions: (  64,  64,  64)

     Smooth grid:    22075 G-vectors     FFT dimensions: (  40,  40,  40)

     Largest allocated arrays     est. size (Mb)     dimensions
        Kohn-Sham Wavefunctions         3.25 Mb     (   2764,   77)
        Atomic wavefunctions            3.37 Mb     (   2764,   80)
        NL pseudopotentials             8.77 Mb     (   2764,  208)
        Each V/rho on FFT grid          8.00 Mb     ( 262144,   2)
        Each G-vector array             0.66 Mb     (  86547)
        G-vector shells                 0.00 Mb     (    635)
     Largest temporary arrays     est. size (Mb)     dimensions
        Auxiliary wavefunctions        12.99 Mb     (   2764,  308)
        Each subspace H/S matrix        1.45 Mb     ( 308, 308)
        Each <psi_i|beta_j> matrix      0.24 Mb     (    208,   77)
        Arrays for rho mixing          32.00 Mb     ( 262144,   8)

     Check: negative/imaginary core charge=   -0.000047    0.000000

     Initial potential from superposition of free atoms

     starting charge  127.99632, renormalised to  128.00000
     Number of +U iterations with fixed ns =  0
     Starting occupations:
 --- enter write_ns ---
 LDA+U parameters:
U( 1)     =  0.00000000
alpha( 1) =  0.00000000
U( 2)     =  0.00000000
alpha( 2) =  0.00000000
U( 3)     =  0.00000000
alpha( 3) =  0.00000000
U( 4)     =  0.00000000
alpha( 4) =  0.00000000
atom    1   Tr[ns(na)] (up, down, total) =   5.00000  3.00000  8.00000
   spin  1
    eigenvalues: 
  1.000  1.000  1.000  1.000  1.000
    eigenvectors:
  1.000  0.000  0.000  0.000  0.000
  0.000  1.000  0.000  0.000  0.000
  0.000  0.000  1.000  0.000  0.000
  0.000  0.000  0.000  1.000  0.000
  0.000  0.000  0.000  0.000  1.000
    occupations:
  1.000  0.000  0.000  0.000  0.000
  0.000  1.000  0.000  0.000  0.000
  0.000  0.000  1.000  0.000  0.000
  0.000  0.000  0.000  1.000  0.000
  0.000  0.000  0.000  0.000  1.000
   spin  2
    eigenvalues: 
  0.600  0.600  0.600  0.600  0.600
    eigenvectors:
  1.000  0.000  0.000  0.000  0.000
  0.000  1.000  0.000  0.000  0.000
  0.000  0.000  1.000  0.000  0.000
  0.000  0.000  0.000  1.000  0.000
  0.000  0.000  0.000  0.000  1.000
    occupations:
  0.600  0.000  0.000  0.000  0.000
  0.000  0.600  0.000  0.000  0.000
  0.000  0.000  0.600  0.000  0.000
  0.000  0.000  0.000  0.600  0.000
  0.000  0.000  0.000  0.000  0.600
atomic mag. moment =     2.000000
atom    2   Tr[ns(na)] (up, down, total) =   5.00000  3.00000  8.00000
   spin  1
    eigenvalues: 
  1.000  1.000  1.000  1.000  1.000
    eigenvectors:
  1.000  0.000  0.000  0.000  0.000
  0.000  1.000  0.000  0.000  0.000
  0.000  0.000  1.000  0.000  0.000
  0.000  0.000  0.000  1.000  0.000
  0.000  0.000  0.000  0.000  1.000
    occupations:
  1.000  0.000  0.000  0.000  0.000
  0.000  1.000  0.000  0.000  0.000
  0.000  0.000  1.000  0.000  0.000
  0.000  0.000  0.000  1.000  0.000
  0.000  0.000  0.000  0.000  1.000
   spin  2
    eigenvalues: 
  0.600  0.600  0.600  0.600  0.600
    eigenvectors:
  1.000  0.000  0.000  0.000  0.000
  0.000  1.000  0.000  0.000  0.000
  0.000  0.000  1.000  0.000  0.000
  0.000  0.000  0.000  1.000  0.000
  0.000  0.000  0.000  0.000  1.000
    occupations:
  0.600  0.000  0.000  0.000  0.000
  0.000  0.600  0.000  0.000  0.000
  0.000  0.000  0.600  0.000  0.000
  0.000  0.000  0.000  0.600  0.000
  0.000  0.000  0.000  0.000  0.600
atomic mag. moment =     2.000000
atom    3   Tr[ns(na)] (up, down, total) =   5.00000  3.00000  8.00000
   spin  1
    eigenvalues: 
  1.000  1.000  1.000  1.000  1.000
    eigenvectors:
  1.000  0.000  0.000  0.000  0.000
  0.000  1.000  0.000  0.000  0.000
  0.000  0.000  1.000  0.000  0.000
  0.000  0.000  0.000  1.000  0.000
  0.000  0.000  0.000  0.000  1.000
    occupations:
  1.000  0.000  0.000  0.000  0.000
  0.000  1.000  0.000  0.000  0.000
  0.000  0.000  1.000  0.000  0.000
  0.000  0.000  0.000  1.000  0.000
  0.000  0.000  0.000  0.000  1.000
   spin  2
    eigenvalues: 
  0.600  0.600  0.600  0.600  0.600
    eigenvectors:
  1.000  0.000  0.000  0.000  0.000
  0.000  1.000  0.000  0.000  0.000
  0.000  0.000  1.000  0.000  0.000
  0.000  0.000  0.000  1.000  0.000
  0.000  0.000  0.000  0.000  1.000
    occupations:
  0.600  0.000  0.000  0.000  0.000
  0.000  0.600  0.000  0.000  0.000
  0.000  0.000  0.600  0.000  0.000
  0.000  0.000  0.000  0.600  0.000
  0.000  0.000  0.000  0.000  0.600
atomic mag. moment =     2.000000
atom    4   Tr[ns(na)] (up, down, total) =   5.00000  3.00000  8.00000
   spin  1
    eigenvalues: 
  1.000  1.000  1.000  1.000  1.000
    eigenvectors:
  1.000  0.000  0.000  0.000  0.000
  0.000  1.000  0.000  0.000  0.000
  0.000  0.000  1.000  0.000  0.000
  0.000  0.000  0.000  1.000  0.000
  0.000  0.000  0.000  0.000  1.000
    occupations:
  1.000  0.000  0.000  0.000  0.000
  0.000  1.000  0.000  0.000  0.000
  0.000  0.000  1.000  0.000  0.000
  0.000  0.000  0.000  1.000  0.000
  0.000  0.000  0.000  0.000  1.000
   spin  2
    eigenvalues: 
  0.600  0.600  0.600  0.600  0.600
    eigenvectors:
  1.000  0.000  0.000  0.000  0.000
  0.000  1.000  0.000  0.000  0.000
  0.000  0.000  1.000  0.000  0.000
  0.000  0.000  0.000  1.000  0.000
  0.000  0.000  0.000  0.000  1.000
    occupations:
  0.600  0.000  0.000  0.000  0.000
  0.000  0.600  0.000  0.000  0.000
  0.000  0.000  0.600  0.000  0.000
  0.000  0.000  0.000  0.600  0.000
  0.000  0.000  0.000  0.000  0.600
atomic mag. moment =     2.000000
atom    5   Tr[ns(na)] (up, down, total) =   3.00000  5.00000  8.00000
   spin  1
    eigenvalues: 
  0.600  0.600  0.600  0.600  0.600
    eigenvectors:
  1.000  0.000  0.000  0.000  0.000
  0.000  1.000  0.000  0.000  0.000
  0.000  0.000  1.000  0.000  0.000
  0.000  0.000  0.000  1.000  0.000
  0.000  0.000  0.000  0.000  1.000
    occupations:
  0.600  0.000  0.000  0.000  0.000
  0.000  0.600  0.000  0.000  0.000
  0.000  0.000  0.600  0.000  0.000
  0.000  0.000  0.000  0.600  0.000
  0.000  0.000  0.000  0.000  0.600
   spin  2
    eigenvalues: 
  1.000  1.000  1.000  1.000  1.000
    eigenvectors:
  1.000  0.000  0.000  0.000  0.000
  0.000  1.000  0.000  0.000  0.000
  0.000  0.000  1.000  0.000  0.000
  0.000  0.000  0.000  1.000  0.000
  0.000  0.000  0.000  0.000  1.000
    occupations:
  1.000  0.000  0.000  0.000  0.000
  0.000  1.000  0.000  0.000  0.000
  0.000  0.000  1.000  0.000  0.000
  0.000  0.000  0.000  1.000  0.000
  0.000  0.000  0.000  0.000  1.000
atomic mag. moment =    -2.000000
atom    6   Tr[ns(na)] (up, down, total) =   3.00000  5.00000  8.00000
   spin  1
    eigenvalues: 
  0.600  0.600  0.600  0.600  0.600
    eigenvectors:
  1.000  0.000  0.000  0.000  0.000
  0.000  1.000  0.000  0.000  0.000
  0.000  0.000  1.000  0.000  0.000
  0.000  0.000  0.000  1.000  0.000
  0.000  0.000  0.000  0.000  1.000
    occupations:
  0.600  0.000  0.000  0.000  0.000
  0.000  0.600  0.000  0.000  0.000
  0.000  0.000  0.600  0.000  0.000
  0.000  0.000  0.000  0.600  0.000
  0.000  0.000  0.000  0.000  0.600
   spin  2
    eigenvalues: 
  1.000  1.000  1.000  1.000  1.000
    eigenvectors:
  1.000  0.000  0.000  0.000  0.000
  0.000  1.000  0.000  0.000  0.000
  0.000  0.000  1.000  0.000  0.000
  0.000  0.000  0.000  1.000  0.000
  0.000  0.000  0.000  0.000  1.000
    occupations:
  1.000  0.000  0.000  0.000  0.000
  0.000  1.000  0.000  0.000  0.000
  0.000  0.000  1.000  0.000  0.000
  0.000  0.000  0.000  1.000  0.000
  0.000  0.000  0.000  0.000  1.000
atomic mag. moment =    -2.000000
atom    7   Tr[ns(na)] (up, down, total) =   3.00000  5.00000  8.00000
   spin  1
    eigenvalues: 
  0.600  0.600  0.600  0.600  0.600
    eigenvectors:
  1.000  0.000  0.000  0.000  0.000
  0.000  1.000  0.000  0.000  0.000
  0.000  0.000  1.000  0.000  0.000
  0.000  0.000  0.000  1.000  0.000
  0.000  0.000  0.000  0.000  1.000
    occupations:
  0.600  0.000  0.000  0.000  0.000
  0.000  0.600  0.000  0.000  0.000
  0.000  0.000  0.600  0.000  0.000
  0.000  0.000  0.000  0.600  0.000
  0.000  0.000  0.000  0.000  0.600
   spin  2
    eigenvalues: 
  1.000  1.000  1.000  1.000  1.000
    eigenvectors:
  1.000  0.000  0.000  0.000  0.000
  0.000  1.000  0.000  0.000  0.000
  0.000  0.000  1.000  0.000  0.000
  0.000  0.000  0.000  1.000  0.000
  0.000  0.000  0.000  0.000  1.000
    occupations:
  1.000  0.000  0.000  0.000  0.000
  0.000  1.000  0.000  0.000  0.000
  0.000  0.000  1.000  0.000  0.000
  0.000  0.000  0.000  1.000  0.000
  0.000  0.000  0.000  0.000  1.000
atomic mag. moment =    -2.000000
atom    8   Tr[ns(na)] (up, down, total) =   3.00000  5.00000  8.00000
   spin  1
    eigenvalues: 
  0.600  0.600  0.600  0.600  0.600
    eigenvectors:
  1.000  0.000  0.000  0.000  0.000
  0.000  1.000  0.000  0.000  0.000
  0.000  0.000  1.000  0.000  0.000
  0.000  0.000  0.000  1.000  0.000
  0.000  0.000  0.000  0.000  1.000
    occupations:
  0.600  0.000  0.000  0.000  0.000
  0.000  0.600  0.000  0.000  0.000
  0.000  0.000  0.600  0.000  0.000
  0.000  0.000  0.000  0.600  0.000
  0.000  0.000  0.000  0.000  0.600
   spin  2
    eigenvalues: 
  1.000  1.000  1.000  1.000  1.000
    eigenvectors:
  1.000  0.000  0.000  0.000  0.000
  0.000  1.000  0.000  0.000  0.000
  0.000  0.000  1.000  0.000  0.000
  0.000  0.000  0.000  1.000  0.000
  0.000  0.000  0.000  0.000  1.000
    occupations:
  1.000  0.000  0.000  0.000  0.000
  0.000  1.000  0.000  0.000  0.000
  0.000  0.000  1.000  0.000  0.000
  0.000  0.000  0.000  1.000  0.000
  0.000  0.000  0.000  0.000  1.000
atomic mag. moment =    -2.000000
atom    9   Tr[ns(na)] (up, down, total) =   2.00000  2.00000  4.00000
   spin  1
    eigenvalues: 
  0.667  0.667  0.667
    eigenvectors:
  1.000  0.000  0.000
  0.000  1.000  0.000
  0.000  0.000  1.000
    occupations:
  0.667  0.000  0.000
  0.000  0.667  0.000
  0.000  0.000  0.667
   spin  2
    eigenvalues: 
  0.667  0.667  0.667
    eigenvectors:
  1.000  0.000  0.000
  0.000  1.000  0.000
  0.000  0.000  1.000
    occupations:
  0.667  0.000  0.000
  0.000  0.667  0.000
  0.000  0.000  0.667
atomic mag. moment =     0.000000
atom   10   Tr[ns(na)] (up, down, total) =   2.00000  2.00000  4.00000
   spin  1
    eigenvalues: 
  0.667  0.667  0.667
    eigenvectors:
  1.000  0.000  0.000
  0.000  1.000  0.000
  0.000  0.000  1.000
    occupations:
  0.667  0.000  0.000
  0.000  0.667  0.000
  0.000  0.000  0.667
   spin  2
    eigenvalues: 
  0.667  0.667  0.667
    eigenvectors:
  1.000  0.000  0.000
  0.000  1.000  0.000
  0.000  0.000  1.000
    occupations:
  0.667  0.000  0.000
  0.000  0.667  0.000
  0.000  0.000  0.667
atomic mag. moment =     0.000000
atom   11   Tr[ns(na)] (up, down, total) =   2.00000  2.00000  4.00000
   spin  1
    eigenvalues: 
  0.667  0.667  0.667
    eigenvectors:
  1.000  0.000  0.000
  0.000  1.000  0.000
  0.000  0.000  1.000
    occupations:
  0.667  0.000  0.000
  0.000  0.667  0.000
  0.000  0.000  0.667
   spin  2
    eigenvalues: 
  0.667  0.667  0.667
    eigenvectors:
  1.000  0.000  0.000
  0.000  1.000  0.000
  0.000  0.000  1.000
    occupations:
  0.667  0.000  0.000
  0.000  0.667  0.000
  0.000  0.000  0.667
atomic mag. moment =     0.000000
atom   12   Tr[ns(na)] (up, down, total) =   2.00000  2.00000  4.00000
   spin  1
    eigenvalues: 
  0.667  0.667  0.667
    eigenvectors:
  1.000  0.000  0.000
  0.000  1.000  0.000
  0.000  0.000  1.000
    occupations:
  0.667  0.000  0.000
  0.000  0.667  0.000
  0.000  0.000  0.667
   spin  2
    eigenvalues: 
  0.667  0.667  0.667
    eigenvectors:
  1.000  0.000  0.000
  0.000  1.000  0.000
  0.000  0.000  1.000
    occupations:
  0.667  0.000  0.000
  0.000  0.667  0.000
  0.000  0.000  0.667
atomic mag. moment =     0.000000
atom   13   Tr[ns(na)] (up, down, total) =   2.00000  2.00000  4.00000
   spin  1
    eigenvalues: 
  0.667  0.667  0.667
    eigenvectors:
  1.000  0.000  0.000
  0.000  1.000  0.000
  0.000  0.000  1.000
    occupations:
  0.667  0.000  0.000
  0.000  0.667  0.000
  0.000  0.000  0.667
   spin  2
    eigenvalues: 
  0.667  0.667  0.667
    eigenvectors:
  1.000  0.000  0.000
  0.000  1.000  0.000
  0.000  0.000  1.000
    occupations:
  0.667  0.000  0.000
  0.000  0.667  0.000
  0.000  0.000  0.667
atomic mag. moment =     0.000000
atom   14   Tr[ns(na)] (up, down, total) =   2.00000  2.00000  4.00000
   spin  1
    eigenvalues: 
  0.667  0.667  0.667
    eigenvectors:
  1.000  0.000  0.000
  0.000  1.000  0.000
  0.000  0.000  1.000
    occupations:
  0.667  0.000  0.000
  0.000  0.667  0.000
  0.000  0.000  0.667
   spin  2
    eigenvalues: 
  0.667  0.667  0.667
    eigenvectors:
  1.000  0.000  0.000
  0.000  1.000  0.000
  0.000  0.000  1.000
    occupations:
  0.667  0.000  0.000
  0.000  0.667  0.000
  0.000  0.000  0.667
atomic mag. moment =     0.000000
atom   15   Tr[ns(na)] (up, down, total) =   2.00000  2.00000  4.00000
   spin  1
    eigenvalues: 
  0.667  0.667  0.667
    eigenvectors:
  1.000  0.000  0.000
  0.000  1.000  0.000
  0.000  0.000  1.000
    occupations:
  0.667  0.000  0.000
  0.000  0.667  0.000
  0.000  0.000  0.667
   spin  2
    eigenvalues: 
  0.667  0.667  0.667
    eigenvectors:
  1.000  0.000  0.000
  0.000  1.000  0.000
  0.000  0.000  1.000
    occupations:
  0.667  0.000  0.000
  0.000  0.667  0.000
  0.000  0.000  0.667
atomic mag. moment =     0.000000
atom   16   Tr[ns(na)] (up, down, total) =   2.00000  2.00000  4.00000
   spin  1
    eigenvalues: 
  0.667  0.667  0.667
    eigenvectors:
  1.000  0.000  0.000
  0.000  1.000  0.000
  0.000  0.000  1.000
    occupations:
  0.667  0.000  0.000
  0.000  0.667  0.000
  0.000  0.000  0.667
   spin  2
    eigenvalues: 
  0.667  0.667  0.667
    eigenvectors:
  1.000  0.000  0.000
  0.000  1.000  0.000
  0.000  0.000  1.000
    occupations:
  0.667  0.000  0.000
  0.000  0.667  0.000
  0.000  0.000  0.667
atomic mag. moment =     0.000000
N of occupied +U levels =  96.0000000
 --- exit write_ns ---
 Atomic wfc used for LDA+U Projector are NOT orthogonalized
     Starting wfc are   80 randomized atomic wfcs

     total cpu time spent up to now is       21.2 secs

     per-process dynamical memory:    87.9 Mb

     Self-consistent Calculation

     iteration #  1     ecut=    30.00 Ry     beta=0.30
     Davidson diagonalization with overlap
     ethr =  1.00E-02,  avg # of iterations =  3.2
 --- enter write_ns ---
 LDA+U parameters:
U( 1)     =  0.00000000
alpha( 1) =  0.00000000
U( 2)     =  0.00000000
alpha( 2) =  0.00000000
U( 3)     =  0.00000000
alpha( 3) =  0.00000000
U( 4)     =  0.00000000
alpha( 4) =  0.00000000
atom    1   Tr[ns(na)] (up, down, total) =   4.98476  3.08050  8.06526
   spin  1
    eigenvalues: 
  0.995  0.995  0.998  0.998  0.998
    eigenvectors:
  0.999  0.000  0.000  0.001  0.000
  0.000  0.000  0.500  0.168  0.332
  0.000  0.000  0.500  0.168  0.332
  0.000  0.999  0.001  0.000  0.000
  0.000  0.000  0.000  0.664  0.336
    occupations:
  0.995  0.000  0.000  0.000  0.000
  0.000  0.998  0.000  0.000  0.000
  0.000  0.000  0.998  0.000  0.000
  0.000  0.000  0.000  0.995  0.000
  0.000  0.000  0.000  0.000  0.998
   spin  2
    eigenvalues: 
  0.241  0.241  0.851  0.851  0.896
    eigenvectors:
  1.000  0.000  0.000  0.000  0.000
  0.000  0.000  0.167  0.500  0.333
  0.000  0.000  0.167  0.500  0.333
  0.000  1.000  0.000  0.000  0.000
  0.000  0.000  0.666  0.000  0.333
    occupations:
  0.241  0.005  0.005  0.000  0.010
  0.005  0.866  0.015  0.009 -0.015
  0.005  0.015  0.866 -0.009 -0.015
  0.000  0.009 -0.009  0.241  0.000
  0.010 -0.015 -0.015  0.000  0.866
atomic mag. moment =     1.904254
atom    2   Tr[ns(na)] (up, down, total) =   4.98476  3.08050  8.06526
   spin  1
    eigenvalues: 
  0.995  0.995  0.998  0.998  0.998
    eigenvectors:
  0.250  0.750  0.000  0.000  0.000
  0.000  0.000  0.000  0.664  0.336
  0.000  0.000  0.500  0.168  0.332
  0.750  0.250  0.000  0.000  0.000
  0.000  0.000  0.500  0.168  0.332
    occupations:
  0.995  0.000  0.000  0.000  0.000
  0.000  0.998  0.000  0.000  0.000
  0.000  0.000  0.998  0.000  0.000
  0.000  0.000  0.000  0.995  0.000
  0.000  0.000  0.000  0.000  0.998
   spin  2
    eigenvalues: 
  0.241  0.241  0.851  0.851  0.896
    eigenvectors:
  0.250  0.750  0.000  0.000  0.000
  0.000  0.000  0.666  0.000  0.333
  0.000  0.000  0.167  0.500  0.333
  0.750  0.250  0.000  0.000  0.000
  0.000  0.000  0.167  0.500  0.333
    occupations:
  0.241  0.005  0.005  0.000  0.010
  0.005  0.866  0.015  0.009 -0.015
  0.005  0.015  0.866 -0.009 -0.015
  0.000  0.009 -0.009  0.241  0.000
  0.010 -0.015 -0.015  0.000  0.866
atomic mag. moment =     1.904254
atom    3   Tr[ns(na)] (up, down, total) =   4.98476  3.08050  8.06526
   spin  1
    eigenvalues: 
  0.995  0.995  0.998  0.998  0.998
    eigenvectors:
  0.250  0.750  0.000  0.000  0.000
  0.000  0.000  0.500  0.168  0.332
  0.000  0.000  0.000  0.664  0.336
  0.750  0.250  0.000  0.000  0.000
  0.000  0.000  0.500  0.168  0.332
    occupations:
  0.995  0.000  0.000  0.000  0.000
  0.000  0.998  0.000  0.000  0.000
  0.000  0.000  0.998  0.000  0.000
  0.000  0.000  0.000  0.995  0.000
  0.000  0.000  0.000  0.000  0.998
   spin  2
    eigenvalues: 
  0.241  0.241  0.851  0.851  0.896
    eigenvectors:
  0.250  0.750  0.000  0.000  0.000
  0.000  0.000  0.167  0.500  0.333
  0.000  0.000  0.666  0.000  0.333
  0.750  0.250  0.000  0.000  0.000
  0.000  0.000  0.167  0.500  0.333
    occupations:
  0.241  0.005  0.005  0.000  0.010
  0.005  0.866  0.015  0.009 -0.015
  0.005  0.015  0.866 -0.009 -0.015
  0.000  0.009 -0.009  0.241  0.000
  0.010 -0.015 -0.015  0.000  0.866
atomic mag. moment =     1.904254
atom    4   Tr[ns(na)] (up, down, total) =   4.98475  3.08047  8.06522
   spin  1
    eigenvalues: 
  0.995  0.995  0.998  0.998  0.998
    eigenvectors:
  0.291  0.708  0.001  0.000  0.000
  0.000  0.000  0.173  0.493  0.333
  0.000  0.000  0.160  0.506  0.333
  0.708  0.291  0.000  0.001  0.000
  0.000  0.000  0.666  0.000  0.333
    occupations:
  0.995  0.000  0.000  0.000  0.000
  0.000  0.998  0.000  0.000  0.000
  0.000  0.000  0.998  0.000  0.000
  0.000  0.000  0.000  0.995  0.000
  0.000  0.000  0.000  0.000  0.998
   spin  2
    eigenvalues: 
  0.241  0.241  0.851  0.851  0.896
    eigenvectors:
  0.729  0.271  0.000  0.000  0.000
  0.000  0.000  0.203  0.463  0.333
  0.000  0.000  0.133  0.534  0.333
  0.271  0.729  0.000  0.000  0.000
  0.000  0.000  0.664  0.003  0.333
    occupations:
  0.241  0.005  0.005  0.000  0.010
  0.005  0.866  0.015  0.009 -0.015
  0.005  0.015  0.866 -0.009 -0.015
  0.000  0.009 -0.009  0.241  0.000
  0.010 -0.015 -0.015  0.000  0.866
atomic mag. moment =     1.904274
atom    5   Tr[ns(na)] (up, down, total) =   3.08057  4.98474  8.06531
   spin  1
    eigenvalues: 
  0.241  0.241  0.851  0.851  0.896
    eigenvectors:
  0.120  0.880  0.000  0.000  0.000
  0.000  0.000  0.255  0.411  0.333
  0.000  0.000  0.092  0.575  0.333
  0.880  0.120  0.000  0.000  0.000
  0.000  0.000  0.653  0.014  0.333
    occupations:
  0.241  0.005  0.005  0.000  0.010
  0.005  0.866  0.015  0.009 -0.015
  0.005  0.015  0.866 -0.009 -0.015
  0.000  0.009 -0.009  0.241  0.000
  0.010 -0.015 -0.015  0.000  0.866
   spin  2
    eigenvalues: 
  0.995  0.995  0.998  0.998  0.998
    eigenvectors:
  0.290  0.709  0.001  0.000  0.000
  0.000  0.000  0.141  0.525  0.333
  0.000  0.000  0.193  0.473  0.333
  0.709  0.290  0.000  0.001  0.000
  0.000  0.000  0.665  0.001  0.333
    occupations:
  0.995  0.000  0.000  0.000  0.000
  0.000  0.998  0.000  0.000  0.000
  0.000  0.000  0.998  0.000  0.000
  0.000  0.000  0.000  0.995  0.000
  0.000  0.000  0.000  0.000  0.998
atomic mag. moment =    -1.904165
atom    6   Tr[ns(na)] (up, down, total) =   3.08055  4.98475  8.06530
   spin  1
    eigenvalues: 
  0.241  0.241  0.851  0.851  0.896
    eigenvectors:
  0.250  0.750  0.000  0.000  0.000
  0.000  0.000  0.500  0.167  0.333
  0.000  0.000  0.000  0.666  0.333
  0.750  0.250  0.000  0.000  0.000
  0.000  0.000  0.500  0.167  0.333
    occupations:
  0.241  0.005  0.005  0.000  0.010
  0.005  0.866  0.015  0.009 -0.015
  0.005  0.015  0.866 -0.009 -0.015
  0.000  0.009 -0.009  0.241  0.000
  0.010 -0.015 -0.015  0.000  0.866
   spin  2
    eigenvalues: 
  0.995  0.995  0.998  0.998  0.998
    eigenvectors:
  0.250  0.750  0.000  0.000  0.000
  0.000  0.000  0.500  0.168  0.332
  0.000  0.000  0.000  0.663  0.336
  0.750  0.250  0.000  0.000  0.000
  0.000  0.000  0.500  0.168  0.332
    occupations:
  0.995  0.000  0.000  0.000  0.000
  0.000  0.998  0.000  0.000  0.000
  0.000  0.000  0.998  0.000  0.000
  0.000  0.000  0.000  0.995  0.000
  0.000  0.000  0.000  0.000  0.998
atomic mag. moment =    -1.904196
atom    7   Tr[ns(na)] (up, down, total) =   3.08055  4.98475  8.06530
   spin  1
    eigenvalues: 
  0.241  0.241  0.851  0.851  0.896
    eigenvectors:
  0.250  0.750  0.000  0.000  0.000
  0.000  0.000  0.000  0.666  0.333
  0.000  0.000  0.500  0.167  0.333
  0.750  0.250  0.000  0.000  0.000
  0.000  0.000  0.500  0.167  0.333
    occupations:
  0.241  0.005  0.005  0.000  0.010
  0.005  0.866  0.015  0.009 -0.015
  0.005  0.015  0.866 -0.009 -0.015
  0.000  0.009 -0.009  0.241  0.000
  0.010 -0.015 -0.015  0.000  0.866
   spin  2
    eigenvalues: 
  0.995  0.995  0.998  0.998  0.998
    eigenvectors:
  0.250  0.750  0.000  0.000  0.000
  0.000  0.000  0.000  0.663  0.336
  0.000  0.000  0.500  0.168  0.332
  0.750  0.250  0.000  0.000  0.000
  0.000  0.000  0.500  0.168  0.332
    occupations:
  0.995  0.000  0.000  0.000  0.000
  0.000  0.998  0.000  0.000  0.000
  0.000  0.000  0.998  0.000  0.000
  0.000  0.000  0.000  0.995  0.000
  0.000  0.000  0.000  0.000  0.998
atomic mag. moment =    -1.904196
atom    8   Tr[ns(na)] (up, down, total) =   3.08055  4.98475  8.06530
   spin  1
    eigenvalues: 
  0.241  0.241  0.851  0.851  0.896
    eigenvectors:
  1.000  0.000  0.000  0.000  0.000
  0.000  0.000  0.500  0.167  0.333
  0.000  0.000  0.500  0.167  0.333
  0.000  1.000  0.000  0.000  0.000
  0.000  0.000  0.000  0.666  0.333
    occupations:
  0.241  0.005  0.005  0.000  0.010
  0.005  0.866  0.015  0.009 -0.015
  0.005  0.015  0.866 -0.009 -0.015
  0.000  0.009 -0.009  0.241  0.000
  0.010 -0.015 -0.015  0.000  0.866
   spin  2
    eigenvalues: 
  0.995  0.995  0.998  0.998  0.998
    eigenvectors:
  0.999  0.000  0.000  0.001  0.000
  0.000  0.000  0.500  0.168  0.332
  0.000  0.000  0.500  0.168  0.332
  0.000  0.999  0.001  0.000  0.000
  0.000  0.000  0.000  0.663  0.336
    occupations:
  0.995  0.000  0.000  0.000  0.000
  0.000  0.998  0.000  0.000  0.000
  0.000  0.000  0.998  0.000  0.000
  0.000  0.000  0.000  0.995  0.000
  0.000  0.000  0.000  0.000  0.998
atomic mag. moment =    -1.904196
atom    9   Tr[ns(na)] (up, down, total) =   2.96540  2.96542  5.93082
   spin  1
    eigenvalues: 
  0.988  0.988  0.989
    eigenvectors:
  0.422  0.245  0.333
  0.567  0.099  0.333
  0.011  0.656  0.333
    occupations:
  0.988  0.000  0.000
  0.000  0.988  0.000
  0.000  0.000  0.988
   spin  2
    eigenvalues: 
  0.988  0.988  0.989
    eigenvectors:
  0.403  0.264  0.333
  0.581  0.086  0.333
  0.016  0.650  0.333
    occupations:
  0.988  0.000  0.000
  0.000  0.988  0.000
  0.000  0.000  0.988
atomic mag. moment =    -0.000023
atom   10   Tr[ns(na)] (up, down, total) =   2.96541  2.96543  5.93084
   spin  1
    eigenvalues: 
  0.988  0.988  0.989
    eigenvectors:
  0.666  0.000  0.334
  0.167  0.500  0.333
  0.167  0.500  0.333
    occupations:
  0.988  0.000  0.000
  0.000  0.988  0.000
  0.000  0.000  0.988
   spin  2
    eigenvalues: 
  0.988  0.988  0.989
    eigenvectors:
  0.000  0.668  0.332
  0.500  0.166  0.334
  0.500  0.166  0.334
    occupations:
  0.988  0.000  0.000
  0.000  0.988  0.000
  0.000  0.000  0.988
atomic mag. moment =    -0.000020
atom   11   Tr[ns(na)] (up, down, total) =   2.96541  2.96543  5.93084
   spin  1
    eigenvalues: 
  0.988  0.988  0.989
    eigenvectors:
  0.167  0.500  0.333
  0.666  0.000  0.334
  0.167  0.500  0.333
    occupations:
  0.988  0.000  0.000
  0.000  0.988  0.000
  0.000  0.000  0.988
   spin  2
    eigenvalues: 
  0.988  0.988  0.989
    eigenvectors:
  0.500  0.166  0.334
  0.000  0.668  0.332
  0.500  0.166  0.334
    occupations:
  0.988  0.000  0.000
  0.000  0.988  0.000
  0.000  0.000  0.988
atomic mag. moment =    -0.000020
atom   12   Tr[ns(na)] (up, down, total) =   2.96541  2.96543  5.93084
   spin  1
    eigenvalues: 
  0.988  0.988  0.989
    eigenvectors:
  0.167  0.500  0.333
  0.167  0.500  0.333
  0.666  0.000  0.334
    occupations:
  0.988  0.000  0.000
  0.000  0.988  0.000
  0.000  0.000  0.988
   spin  2
    eigenvalues: 
  0.988  0.988  0.989
    eigenvectors:
  0.500  0.166  0.334
  0.500  0.166  0.334
  0.000  0.668  0.332
    occupations:
  0.988  0.000  0.000
  0.000  0.988  0.000
  0.000  0.000  0.988
atomic mag. moment =    -0.000020
atom   13   Tr[ns(na)] (up, down, total) =   2.96541  2.96542  5.93083
   spin  1
    eigenvalues: 
  0.988  0.988  0.989
    eigenvectors:
  0.166  0.500  0.334
  0.667  0.000  0.333
  0.166  0.500  0.334
    occupations:
  0.988  0.000  0.000
  0.000  0.988  0.000
  0.000  0.000  0.988
   spin  2
    eigenvalues: 
  0.988  0.988  0.989
    eigenvectors:
  0.167  0.500  0.333
  0.665  0.000  0.335
  0.167  0.500  0.333
    occupations:
  0.988  0.000  0.000
  0.000  0.988  0.000
  0.000  0.000  0.988
atomic mag. moment =    -0.000014
atom   14   Tr[ns(na)] (up, down, total) =   2.96541  2.96542  5.93083
   spin  1
    eigenvalues: 
  0.988  0.988  0.989
    eigenvectors:
  0.166  0.500  0.334
  0.166  0.500  0.334
  0.667  0.000  0.333
    occupations:
  0.988  0.000  0.000
  0.000  0.988  0.000
  0.000  0.000  0.988
   spin  2
    eigenvalues: 
  0.988  0.988  0.989
    eigenvectors:
  0.167  0.500  0.333
  0.167  0.500  0.333
  0.665  0.000  0.335
    occupations:
  0.988  0.000  0.000
  0.000  0.988  0.000
  0.000  0.000  0.988
atomic mag. moment =    -0.000014
atom   15   Tr[ns(na)] (up, down, total) =   2.96541  2.96542  5.93083
   spin  1
    eigenvalues: 
  0.988  0.988  0.989
    eigenvectors:
  0.667  0.000  0.333
  0.166  0.500  0.334
  0.166  0.500  0.334
    occupations:
  0.988  0.000  0.000
  0.000  0.988  0.000
  0.000  0.000  0.988
   spin  2
    eigenvalues: 
  0.988  0.988  0.989
    eigenvectors:
  0.665  0.000  0.335
  0.167  0.500  0.333
  0.167  0.500  0.333
    occupations:
  0.988  0.000  0.000
  0.000  0.988  0.000
  0.000  0.000  0.988
atomic mag. moment =    -0.000014
atom   16   Tr[ns(na)] (up, down, total) =   2.96540  2.96542  5.93082
   spin  1
    eigenvalues: 
  0.988  0.988  0.989
    eigenvectors:
  0.370  0.297  0.333
  0.602  0.065  0.333
  0.028  0.639  0.333
    occupations:
  0.988  0.000  0.000
  0.000  0.988  0.000
  0.000  0.000  0.988
   spin  2
    eigenvalues: 
  0.988  0.988  0.989
    eigenvectors:
  0.425  0.242  0.333
  0.565  0.101  0.333
  0.010  0.657  0.333
    occupations:
  0.988  0.000  0.000
  0.000  0.988  0.000
  0.000  0.000  0.988
atomic mag. moment =    -0.000018
N of occupied +U levels = 111.9688783
 --- exit write_ns ---

     total cpu time spent up to now is       60.3 secs

     total energy              =    -938.82156763 Ry
     Harris-Foulkes estimate   =    -942.63298139 Ry
     estimated scf accuracy    <      10.04429009 Ry

     total magnetization       =     0.00 Bohr mag/cell
     absolute magnetization    =    18.44 Bohr mag/cell

     iteration #  2     ecut=    30.00 Ry     beta=0.30
     Davidson diagonalization with overlap
     ethr =  7.85E-03,  avg # of iterations =  2.0

     total cpu time spent up to now is       99.0 secs

     total energy              =    -941.39044380 Ry
     Harris-Foulkes estimate   =    -941.33850837 Ry
     estimated scf accuracy    <       2.02889175 Ry

     total magnetization       =     0.00 Bohr mag/cell
     absolute magnetization    =    12.09 Bohr mag/cell

     iteration #  3     ecut=    30.00 Ry     beta=0.30
     Davidson diagonalization with overlap
     ethr =  1.59E-03,  avg # of iterations =  1.0

     negative rho (up, down):  0.107E-03 0.107E-03

     total cpu time spent up to now is      134.8 secs

     total energy              =    -941.95026915 Ry
     Harris-Foulkes estimate   =    -941.52786396 Ry
     estimated scf accuracy    <       0.67069327 Ry

     total magnetization       =     0.00 Bohr mag/cell
     absolute magnetization    =    13.28 Bohr mag/cell

     iteration #  4     ecut=    30.00 Ry     beta=0.30
     Davidson diagonalization with overlap
     ethr =  5.24E-04,  avg # of iterations =  1.6

     negative rho (up, down):  0.401E-04 0.401E-04

     total cpu time spent up to now is      170.9 secs

     total energy              =    -941.99757448 Ry
     Harris-Foulkes estimate   =    -941.99459080 Ry
     estimated scf accuracy    <       0.03787477 Ry

     total magnetization       =     0.00 Bohr mag/cell
     absolute magnetization    =    12.20 Bohr mag/cell

     iteration #  5     ecut=    30.00 Ry     beta=0.30
     Davidson diagonalization with overlap
     ethr =  2.96E-05,  avg # of iterations =  4.5

     total cpu time spent up to now is      209.7 secs

     total energy              =    -942.00964144 Ry
     Harris-Foulkes estimate   =    -942.00211506 Ry
     estimated scf accuracy    <       0.00328070 Ry

     total magnetization       =     0.00 Bohr mag/cell
     absolute magnetization    =    12.36 Bohr mag/cell

     iteration #  6     ecut=    30.00 Ry     beta=0.30
     Davidson diagonalization with overlap
     ethr =  2.56E-06,  avg # of iterations =  2.9

     total cpu time spent up to now is      247.2 secs

     total energy              =    -942.01316532 Ry
     Harris-Foulkes estimate   =    -942.01000425 Ry
     estimated scf accuracy    <       0.00062895 Ry

     total magnetization       =     0.00 Bohr mag/cell
     absolute magnetization    =    12.29 Bohr mag/cell

     iteration #  7     ecut=    30.00 Ry     beta=0.30
     Davidson diagonalization with overlap
     ethr =  4.91E-07,  avg # of iterations =  2.0

     total cpu time spent up to now is      284.2 secs

     total energy              =    -942.01470117 Ry
     Harris-Foulkes estimate   =    -942.01323251 Ry
     estimated scf accuracy    <       0.00013521 Ry

     total magnetization       =     0.00 Bohr mag/cell
     absolute magnetization    =    12.31 Bohr mag/cell

     iteration #  8     ecut=    30.00 Ry     beta=0.30
     Davidson diagonalization with overlap
     ethr =  1.06E-07,  avg # of iterations =  1.4

     total cpu time spent up to now is      320.1 secs

     total energy              =    -942.01545252 Ry
     Harris-Foulkes estimate   =    -942.01471383 Ry
     estimated scf accuracy    <       0.00003474 Ry

     total magnetization       =     0.00 Bohr mag/cell
     absolute magnetization    =    12.31 Bohr mag/cell

     iteration #  9     ecut=    30.00 Ry     beta=0.30
     Davidson diagonalization with overlap
     ethr =  2.71E-08,  avg # of iterations =  2.0

     total cpu time spent up to now is      357.1 secs

     total energy              =    -942.01578735 Ry
     Harris-Foulkes estimate   =    -942.01546304 Ry
     estimated scf accuracy    <       0.00000180 Ry

     total magnetization       =     0.00 Bohr mag/cell
     absolute magnetization    =    12.29 Bohr mag/cell

     iteration # 10     ecut=    30.00 Ry     beta=0.30
     Davidson diagonalization with overlap
     ethr =  1.40E-09,  avg # of iterations =  2.1

     total cpu time spent up to now is      395.4 secs

     total energy              =    -942.01594931 Ry
     Harris-Foulkes estimate   =    -942.01578766 Ry
     estimated scf accuracy    <       0.00000068 Ry

     total magnetization       =     0.00 Bohr mag/cell
     absolute magnetization    =    12.29 Bohr mag/cell

     iteration # 11     ecut=    30.00 Ry     beta=0.30
     Davidson diagonalization with overlap
     ethr =  5.29E-10,  avg # of iterations =  2.0

     total cpu time spent up to now is      433.5 secs

     total energy              =    -942.01602736 Ry
     Harris-Foulkes estimate   =    -942.01594946 Ry
     estimated scf accuracy    <       0.00000020 Ry

     total magnetization       =     0.00 Bohr mag/cell
     absolute magnetization    =    12.29 Bohr mag/cell

     iteration # 12     ecut=    30.00 Ry     beta=0.30
     Davidson diagonalization with overlap
     ethr =  1.54E-10,  avg # of iterations =  1.4

     total cpu time spent up to now is      469.5 secs

     total energy              =    -942.01606496 Ry
     Harris-Foulkes estimate   =    -942.01602738 Ry
     estimated scf accuracy    <       0.00000003 Ry

     total magnetization       =     0.00 Bohr mag/cell
     absolute magnetization    =    12.29 Bohr mag/cell

     iteration # 13     ecut=    30.00 Ry     beta=0.30
     Davidson diagonalization with overlap
     ethr =  2.18E-11,  avg # of iterations =  2.2

     total cpu time spent up to now is      508.1 secs

     End of self-consistent calculation
 --- enter write_ns ---
 LDA+U parameters:
U( 1)     =  0.00000000
alpha( 1) =  0.00000000
U( 2)     =  0.00000000
alpha( 2) =  0.00000000
U( 3)     =  0.00000000
alpha( 3) =  0.00000000
U( 4)     =  0.00000000
alpha( 4) =  0.00000000
atom    1   Tr[ns(na)] (up, down, total) =   4.95241  3.75361  8.70602
   spin  1
    eigenvalues: 
  0.980  0.980  0.997  0.997  0.997
    eigenvectors:
  0.000  1.000  0.000  0.000  0.000
  0.000  0.000  0.167  0.500  0.333
  0.000  0.000  0.167  0.500  0.333
  1.000  0.000  0.000  0.000  0.000
  0.000  0.000  0.667  0.000  0.333
    occupations:
  0.980  0.000  0.000  0.000  0.000
  0.000  0.997  0.000  0.000  0.000
  0.000  0.000  0.997  0.000  0.000
  0.000  0.000  0.000  0.980  0.000
  0.000  0.000  0.000  0.000  0.997
   spin  2
    eigenvalues: 
  0.384  0.384  0.995  0.995  0.995
    eigenvectors:
  1.000  0.000  0.000  0.000  0.000
  0.000  0.000  0.167  0.500  0.333
  0.000  0.000  0.167  0.500  0.333
  0.000  1.000  0.000  0.000  0.000
  0.000  0.000  0.667  0.000  0.333
    occupations:
  0.384  0.001  0.001  0.000  0.001
  0.001  0.995  0.000  0.001  0.000
  0.001  0.000  0.995 -0.001  0.000
  0.000  0.001 -0.001  0.384  0.000
  0.001  0.000  0.000  0.000  0.995
atomic mag. moment =     1.198793
atom    2   Tr[ns(na)] (up, down, total) =   4.95241  3.75361  8.70602
   spin  1
    eigenvalues: 
  0.980  0.980  0.997  0.997  0.997
    eigenvectors:
  0.750  0.250  0.000  0.000  0.000
  0.000  0.000  0.667  0.000  0.333
  0.000  0.000  0.167  0.500  0.333
  0.250  0.750  0.000  0.000  0.000
  0.000  0.000  0.167  0.500  0.333
    occupations:
  0.980  0.000  0.000  0.000  0.000
  0.000  0.997  0.000  0.000  0.000
  0.000  0.000  0.997  0.000  0.000
  0.000  0.000  0.000  0.980  0.000
  0.000  0.000  0.000  0.000  0.997
   spin  2
    eigenvalues: 
  0.384  0.384  0.995  0.995  0.995
    eigenvectors:
  0.250  0.750  0.000  0.000  0.000
  0.000  0.000  0.667  0.000  0.333
  0.000  0.000  0.167  0.500  0.333
  0.750  0.250  0.000  0.000  0.000
  0.000  0.000  0.167  0.500  0.333
    occupations:
  0.384  0.001  0.001  0.000  0.001
  0.001  0.995  0.000  0.001  0.000
  0.001  0.000  0.995 -0.001  0.000
  0.000  0.001 -0.001  0.384  0.000
  0.001  0.000  0.000  0.000  0.995
atomic mag. moment =     1.198793
atom    3   Tr[ns(na)] (up, down, total) =   4.95241  3.75361  8.70602
   spin  1
    eigenvalues: 
  0.980  0.980  0.997  0.997  0.997
    eigenvectors:
  0.750  0.250  0.000  0.000  0.000
  0.000  0.000  0.167  0.500  0.333
  0.000  0.000  0.667  0.000  0.333
  0.250  0.750  0.000  0.000  0.000
  0.000  0.000  0.167  0.500  0.333
    occupations:
  0.980  0.000  0.000  0.000  0.000
  0.000  0.997  0.000  0.000  0.000
  0.000  0.000  0.997  0.000  0.000
  0.000  0.000  0.000  0.980  0.000
  0.000  0.000  0.000  0.000  0.997
   spin  2
    eigenvalues: 
  0.384  0.384  0.995  0.995  0.995
    eigenvectors:
  0.250  0.750  0.000  0.000  0.000
  0.000  0.000  0.167  0.500  0.333
  0.000  0.000  0.667  0.000  0.333
  0.750  0.250  0.000  0.000  0.000
  0.000  0.000  0.167  0.500  0.333
    occupations:
  0.384  0.001  0.001  0.000  0.001
  0.001  0.995  0.000  0.001  0.000
  0.001  0.000  0.995 -0.001  0.000
  0.000  0.001 -0.001  0.384  0.000
  0.001  0.000  0.000  0.000  0.995
atomic mag. moment =     1.198793
atom    4   Tr[ns(na)] (up, down, total) =   4.95241  3.75362  8.70603
   spin  1
    eigenvalues: 
  0.980  0.980  0.997  0.997  0.997
    eigenvectors:
  0.317  0.683  0.000  0.000  0.000
  0.000  0.000  0.168  0.499  0.333
  0.000  0.000  0.165  0.501  0.333
  0.683  0.317  0.000  0.000  0.000
  0.000  0.000  0.667  0.000  0.333
    occupations:
  0.980  0.000  0.000  0.000  0.000
  0.000  0.997  0.000  0.000  0.000
  0.000  0.000  0.997  0.000  0.000
  0.000  0.000  0.000  0.980  0.000
  0.000  0.000  0.000  0.000  0.997
   spin  2
    eigenvalues: 
  0.384  0.384  0.995  0.995  0.995
    eigenvectors:
  0.165  0.835  0.000  0.000  0.000
  0.000  0.000  0.128  0.538  0.333
  0.000  0.000  0.208  0.458  0.333
  0.835  0.165  0.000  0.000  0.000
  0.000  0.000  0.663  0.003  0.333
    occupations:
  0.384  0.001  0.001  0.000  0.001
  0.001  0.995  0.000  0.001  0.000
  0.001  0.000  0.995 -0.001  0.000
  0.000  0.001 -0.001  0.384  0.000
  0.001  0.000  0.000  0.000  0.995
atomic mag. moment =     1.198788
atom    5   Tr[ns(na)] (up, down, total) =   3.75362  4.95241  8.70602
   spin  1
    eigenvalues: 
  0.384  0.384  0.995  0.995  0.995
    eigenvectors:
  0.077  0.923  0.000  0.000  0.000
  0.000  0.000  0.120  0.546  0.333
  0.000  0.000  0.218  0.449  0.333
  0.923  0.077  0.000  0.000  0.000
  0.000  0.000  0.662  0.005  0.333
    occupations:
  0.384  0.001  0.001  0.000  0.001
  0.001  0.995  0.000  0.001  0.000
  0.001  0.000  0.995 -0.001  0.000
  0.000  0.001 -0.001  0.384  0.000
  0.001  0.000  0.000  0.000  0.995
   spin  2
    eigenvalues: 
  0.980  0.980  0.997  0.997  0.997
    eigenvectors:
  0.117  0.883  0.000  0.000  0.000
  0.000  0.000  0.127  0.539  0.333
  0.000  0.000  0.209  0.457  0.333
  0.883  0.117  0.000  0.000  0.000
  0.000  0.000  0.663  0.003  0.333
    occupations:
  0.980  0.000  0.000  0.000  0.000
  0.000  0.997  0.000  0.000  0.000
  0.000  0.000  0.997  0.000  0.000
  0.000  0.000  0.000  0.980  0.000
  0.000  0.000  0.000  0.000  0.997
atomic mag. moment =    -1.198791
atom    6   Tr[ns(na)] (up, down, total) =   3.75362  4.95241  8.70602
   spin  1
    eigenvalues: 
  0.384  0.384  0.995  0.995  0.995
    eigenvectors:
  0.250  0.750  0.000  0.000  0.000
  0.000  0.000  0.167  0.500  0.333
  0.000  0.000  0.667  0.000  0.333
  0.750  0.250  0.000  0.000  0.000
  0.000  0.000  0.167  0.500  0.333
    occupations:
  0.384  0.001  0.001  0.000  0.001
  0.001  0.995  0.000  0.001  0.000
  0.001  0.000  0.995 -0.001  0.000
  0.000  0.001 -0.001  0.384  0.000
  0.001  0.000  0.000  0.000  0.995
   spin  2
    eigenvalues: 
  0.980  0.980  0.997  0.997  0.997
    eigenvectors:
  0.750  0.250  0.000  0.000  0.000
  0.000  0.000  0.167  0.500  0.333
  0.000  0.000  0.667  0.000  0.333
  0.250  0.750  0.000  0.000  0.000
  0.000  0.000  0.167  0.500  0.333
    occupations:
  0.980  0.000  0.000  0.000  0.000
  0.000  0.997  0.000  0.000  0.000
  0.000  0.000  0.997  0.000  0.000
  0.000  0.000  0.000  0.980  0.000
  0.000  0.000  0.000  0.000  0.997
atomic mag. moment =    -1.198792
atom    7   Tr[ns(na)] (up, down, total) =   3.75362  4.95241  8.70602
   spin  1
    eigenvalues: 
  0.384  0.384  0.995  0.995  0.995
    eigenvectors:
  0.250  0.750  0.000  0.000  0.000
  0.000  0.000  0.667  0.000  0.333
  0.000  0.000  0.167  0.500  0.333
  0.750  0.250  0.000  0.000  0.000
  0.000  0.000  0.167  0.500  0.333
    occupations:
  0.384  0.001  0.001  0.000  0.001
  0.001  0.995  0.000  0.001  0.000
  0.001  0.000  0.995 -0.001  0.000
  0.000  0.001 -0.001  0.384  0.000
  0.001  0.000  0.000  0.000  0.995
   spin  2
    eigenvalues: 
  0.980  0.980  0.997  0.997  0.997
    eigenvectors:
  0.750  0.250  0.000  0.000  0.000
  0.000  0.000  0.667  0.000  0.333
  0.000  0.000  0.167  0.500  0.333
  0.250  0.750  0.000  0.000  0.000
  0.000  0.000  0.167  0.500  0.333
    occupations:
  0.980  0.000  0.000  0.000  0.000
  0.000  0.997  0.000  0.000  0.000
  0.000  0.000  0.997  0.000  0.000
  0.000  0.000  0.000  0.980  0.000
  0.000  0.000  0.000  0.000  0.997
atomic mag. moment =    -1.198792
atom    8   Tr[ns(na)] (up, down, total) =   3.75362  4.95241  8.70602
   spin  1
    eigenvalues: 
  0.384  0.384  0.995  0.995  0.995
    eigenvectors:
  1.000  0.000  0.000  0.000  0.000
  0.000  0.000  0.167  0.500  0.333
  0.000  0.000  0.167  0.500  0.333
  0.000  1.000  0.000  0.000  0.000
  0.000  0.000  0.667  0.000  0.333
    occupations:
  0.384  0.001  0.001  0.000  0.001
  0.001  0.995  0.000  0.001  0.000
  0.001  0.000  0.995 -0.001  0.000
  0.000  0.001 -0.001  0.384  0.000
  0.001  0.000  0.000  0.000  0.995
   spin  2
    eigenvalues: 
  0.980  0.980  0.997  0.997  0.997
    eigenvectors:
  0.000  1.000  0.000  0.000  0.000
  0.000  0.000  0.167  0.500  0.333
  0.000  0.000  0.167  0.500  0.333
  1.000  0.000  0.000  0.000  0.000
  0.000  0.000  0.667  0.000  0.333
    occupations:
  0.980  0.000  0.000  0.000  0.000
  0.000  0.997  0.000  0.000  0.000
  0.000  0.000  0.997  0.000  0.000
  0.000  0.000  0.000  0.980  0.000
  0.000  0.000  0.000  0.000  0.997
atomic mag. moment =    -1.198792
atom    9   Tr[ns(na)] (up, down, total) =   2.81114  2.81114  5.62228
   spin  1
    eigenvalues: 
  0.937  0.937  0.938
    eigenvectors:
  0.368  0.299  0.333
  0.603  0.064  0.333
  0.029  0.638  0.333
    occupations:
  0.937  0.000  0.000
  0.000  0.937  0.000
  0.000  0.000  0.937
   spin  2
    eigenvalues: 
  0.937  0.937  0.938
    eigenvectors:
  0.442  0.224  0.333
  0.552  0.115  0.333
  0.006  0.661  0.333
    occupations:
  0.937  0.000  0.000
  0.000  0.937  0.000
  0.000  0.000  0.937
atomic mag. moment =    -0.000001
atom   10   Tr[ns(na)] (up, down, total) =   2.81114  2.81114  5.62228
   spin  1
    eigenvalues: 
  0.937  0.937  0.938
    eigenvectors:
  0.667  0.000  0.333
  0.167  0.500  0.333
  0.167  0.500  0.333
    occupations:
  0.937  0.000  0.000
  0.000  0.937  0.000
  0.000  0.000  0.937
   spin  2
    eigenvalues: 
  0.937  0.937  0.938
    eigenvectors:
  0.667  0.000  0.333
  0.167  0.500  0.333
  0.167  0.500  0.333
    occupations:
  0.937  0.000  0.000
  0.000  0.937  0.000
  0.000  0.000  0.937
atomic mag. moment =     0.000000
atom   11   Tr[ns(na)] (up, down, total) =   2.81114  2.81114  5.62228
   spin  1
    eigenvalues: 
  0.937  0.937  0.938
    eigenvectors:
  0.167  0.500  0.333
  0.667  0.000  0.333
  0.167  0.500  0.333
    occupations:
  0.937  0.000  0.000
  0.000  0.937  0.000
  0.000  0.000  0.937
   spin  2
    eigenvalues: 
  0.937  0.937  0.938
    eigenvectors:
  0.167  0.500  0.333
  0.667  0.000  0.333
  0.167  0.500  0.333
    occupations:
  0.937  0.000  0.000
  0.000  0.937  0.000
  0.000  0.000  0.937
atomic mag. moment =     0.000000
atom   12   Tr[ns(na)] (up, down, total) =   2.81114  2.81114  5.62228
   spin  1
    eigenvalues: 
  0.937  0.937  0.938
    eigenvectors:
  0.167  0.500  0.333
  0.167  0.500  0.333
  0.667  0.000  0.333
    occupations:
  0.937  0.000  0.000
  0.000  0.937  0.000
  0.000  0.000  0.937
   spin  2
    eigenvalues: 
  0.937  0.937  0.938
    eigenvectors:
  0.167  0.500  0.333
  0.167  0.500  0.333
  0.667  0.000  0.333
    occupations:
  0.937  0.000  0.000
  0.000  0.937  0.000
  0.000  0.000  0.937
atomic mag. moment =     0.000000
atom   13   Tr[ns(na)] (up, down, total) =   2.81114  2.81114  5.62228
   spin  1
    eigenvalues: 
  0.937  0.937  0.938
    eigenvectors:
  0.167  0.500  0.333
  0.667  0.000  0.333
  0.167  0.500  0.333
    occupations:
  0.937  0.000  0.000
  0.000  0.937  0.000
  0.000  0.000  0.937
   spin  2
    eigenvalues: 
  0.937  0.937  0.938
    eigenvectors:
  0.167  0.500  0.333
  0.667  0.000  0.333
  0.167  0.500  0.333
    occupations:
  0.937  0.000  0.000
  0.000  0.937  0.000
  0.000  0.000  0.937
atomic mag. moment =     0.000000
atom   14   Tr[ns(na)] (up, down, total) =   2.81114  2.81114  5.62228
   spin  1
    eigenvalues: 
  0.937  0.937  0.938
    eigenvectors:
  0.167  0.500  0.333
  0.167  0.500  0.333
  0.667  0.000  0.333
    occupations:
  0.937  0.000  0.000
  0.000  0.937  0.000
  0.000  0.000  0.937
   spin  2
    eigenvalues: 
  0.937  0.937  0.938
    eigenvectors:
  0.167  0.500  0.333
  0.167  0.500  0.333
  0.667  0.000  0.333
    occupations:
  0.937  0.000  0.000
  0.000  0.937  0.000
  0.000  0.000  0.937
atomic mag. moment =     0.000000
atom   15   Tr[ns(na)] (up, down, total) =   2.81114  2.81114  5.62228
   spin  1
    eigenvalues: 
  0.937  0.937  0.938
    eigenvectors:
  0.667  0.000  0.333
  0.167  0.500  0.333
  0.167  0.500  0.333
    occupations:
  0.937  0.000  0.000
  0.000  0.937  0.000
  0.000  0.000  0.937
   spin  2
    eigenvalues: 
  0.937  0.937  0.938
    eigenvectors:
  0.667  0.000  0.333
  0.167  0.500  0.333
  0.167  0.500  0.333
    occupations:
  0.937  0.000  0.000
  0.000  0.937  0.000
  0.000  0.000  0.937
atomic mag. moment =     0.000000
atom   16   Tr[ns(na)] (up, down, total) =   2.81114  2.81114  5.62229
   spin  1
    eigenvalues: 
  0.937  0.937  0.938
    eigenvectors:
  0.500  0.167  0.333
  0.500  0.167  0.333
  0.000  0.667  0.333
    occupations:
  0.937  0.000  0.000
  0.000  0.937  0.000
  0.000  0.000  0.937
   spin  2
    eigenvalues: 
  0.937  0.937  0.938
    eigenvectors:
  0.500  0.167  0.333
  0.500  0.167  0.333
  0.000  0.667  0.333
    occupations:
  0.937  0.000  0.000
  0.000  0.937  0.000
  0.000  0.000  0.937
atomic mag. moment =     0.000000
N of occupied +U levels = 114.6264629
 --- exit write_ns ---

 ------ SPIN UP ------------


          k = 0.0000 0.0000 0.0000 (  2733 PWs)   bands (ev):

    -8.0785  -6.6875  -6.6871  -6.6871  -6.6871  -6.6187  -6.6187  -6.6187
     4.0280   4.0280   4.0280   4.0330   5.3280   5.3280   5.3280   6.5218
     6.5218   6.5314   6.5314   6.5314   6.5625   6.5625   6.5625   7.9527
     7.9527   7.9527   7.9568   7.9568   7.9568   8.8312   8.8312   8.8312
     9.2552   9.2552   9.2624   9.5586   9.5586   9.6940   9.8760   9.8760
     9.9429   9.9429   9.9429  10.2282  10.2282  10.2282  10.4852  10.4852
    10.4852  10.5993  10.5993  10.5993  10.9111  10.9111  11.0392  11.0392
    11.0392  11.1789  11.2634  11.2634  11.2634  11.3828  11.3828  11.3828
    13.5444  13.5444  13.6036  13.6036  13.6036  13.6877  13.6877  13.6877
    13.7598  17.7994  17.7999  17.7999  18.3915

          k =-0.1250 0.1250 0.1250 (  2743 PWs)   bands (ev):

    -7.9029  -6.9263  -6.6810  -6.6809  -6.6809  -6.6322  -6.6320  -6.6320
     4.3462   4.3462   4.3510   4.6035   5.3429   5.3429   5.3450   6.4322
     6.4406   6.4406   6.6294   6.6725   6.6725   6.6926   6.7363   7.1941
     7.1941   7.2333   7.6860   7.6860   7.6986   7.9652   8.3984   8.4064
     9.2795   9.3365   9.3365   9.6767   9.8228   9.9600  10.0416  10.0416
    10.1098  10.2183  10.2183  10.2473  10.3722  10.5191  10.5398  10.5398
    10.5502  10.6347  10.6868  10.6868  10.8966  10.9923  11.1143  11.1143
    11.1171  11.1774  11.2581  11.2581  11.2796  11.3130  11.3420  11.3420
    13.2117  13.2781  13.2781  13.2919  13.3820  13.4198  13.4198  13.4641
    14.7667  17.5938  18.6770  18.6786  18.6786

          k = 0.2500-0.2500-0.2500 (  2764 PWs)   bands (ev):

    -7.4454  -7.4454  -6.6642  -6.6642  -6.6602  -6.6602  -6.6558  -6.6558
     5.0499   5.0499   5.0643   5.0643   5.0711   5.0711   6.0917   6.0917
     6.3226   6.3226   6.3877   6.3877   6.4627   6.4627   6.8538   6.8538
     7.0123   7.0123   7.3113   7.3113   7.4842   7.4842   7.6354   7.6354
     9.6322   9.6323   9.8168   9.8168   9.8869   9.8869  10.0221  10.0221
    10.1585  10.1585  10.2210  10.2210  10.5325  10.5325  10.6419  10.6419
    10.6586  10.6586  10.8692  10.8692  10.9629  10.9629  11.2432  11.2432
    11.2520  11.2520  11.2967  11.2967  11.3291  11.3291  11.4318  11.4318
    13.0373  13.0373  13.0438  13.0438  13.0518  13.0518  13.0623  13.0623
    16.4826  16.4826  19.6527  19.6527  19.7119

          k = 0.0000 0.0000 0.2500 (  2706 PWs)   bands (ev):

    -7.8497  -6.8065  -6.7519  -6.7517  -6.7517  -6.7513  -6.5653  -6.5653
     4.4894   4.4894   4.4904   4.4946   5.2309   5.5189   5.5189   6.5258
     6.5258   6.5460   6.5828   6.5900   6.6188   6.6188   6.6776   7.0594
     7.0594   7.1660   7.1660   7.4593   7.9686   7.9737   8.6484   8.6576
     8.9537   9.5323   9.6265   9.6265   9.8120   9.9776  10.0548  10.0548
    10.0943  10.1099  10.1838  10.2768  10.2768  10.3950  10.4088  10.5431
    10.5431  10.6118  10.6118  10.6570  10.9097  11.0069  11.0069  11.0482
    11.0542  11.1677  11.2403  11.2926  11.2926  11.3455  11.3455  11.3771
    12.8758  13.0370  13.0370  13.0404  13.5217  13.5649  13.6426  13.6426
    15.2134  18.5668  18.5679  18.5679  18.5684

          k = 0.3750-0.3750-0.1250 (  2734 PWs)   bands (ev):

    -7.5001  -7.1696  -6.9648  -6.7688  -6.7686  -6.5939  -6.5541  -6.5538
     4.9613   4.9635   4.9752   5.3040   5.4213   5.4962   5.5177   6.1726
     6.2074   6.2332   6.2622   6.5859   6.5882   6.7421   6.7460   6.8580
     6.8867   6.9196   6.9900   7.3540   7.3730   7.7174   7.7570   8.0118
     9.4542   9.6490   9.8201   9.8927   9.9536   9.9663  10.0347  10.1361
    10.1388  10.1665  10.2083  10.2856  10.3135  10.3200  10.4754  10.5093
    10.7302  10.7359  10.7397  10.7517  10.8756  10.9038  11.0375  11.0754
    11.1653  11.1928  11.2231  11.2548  11.3296  11.3334  11.3514  11.4078
    12.7364  12.7802  12.8321  12.9285  13.2333  13.2563  13.3620  13.4309
    16.6942  17.6020  18.6704  19.3624  19.3640

          k = 0.2500-0.2500 0.0000 (  2742 PWs)   bands (ev):

    -7.6380  -7.0145  -7.0145  -6.7180  -6.7180  -6.6008  -6.6005  -6.5444
     4.7685   4.7736   5.0650   5.0650   5.2609   5.2609   5.6981   5.9615
     6.2832   6.2994   6.5243   6.7165   6.7425   6.7425   6.9111   6.9111
     6.9278   7.1564   7.1564   7.1861   7.4479   7.4479   7.6283   8.1210
     9.6563   9.6563   9.7877   9.8472   9.9036   9.9036  10.0424  10.1097
    10.1315  10.2245  10.2275  10.2275  10.2275  10.3600  10.3600  10.5139
    10.7167  10.7489  10.7489  10.8256  10.9010  11.0936  11.0936  11.1122
    11.2070  11.2070  11.2298  11.2410  11.2766  11.3429  11.4033  11.4033
    13.0400  13.0444  13.0553  13.0553  13.1119  13.1494  13.1494  13.2814
    16.0075  18.0612  18.0612  19.3780  19.3780

          k = 0.0000 0.0000-0.5000 (  2762 PWs)   bands (ev):

    -7.3086  -7.3086  -6.8144  -6.8144  -6.8142  -6.8142  -6.5110  -6.5110
     5.0176   5.0176   5.0246   5.0246   5.7672   5.7672   6.0978   6.0978
     6.1036   6.1036   6.4017   6.4017   6.6492   6.6492   6.6815   6.6815
     6.7209   6.7209   6.7273   6.7273   8.1474   8.1474   8.1584   8.1584
     9.2480   9.2480   9.9485   9.9485  10.0288  10.0288  10.0440  10.0440
    10.0471  10.0471  10.1681  10.1681  10.3482  10.3482  10.4945  10.4945
    10.5172  10.5172  10.5805  10.5805  10.9102  10.9102  11.0032  11.0032
    11.1465  11.1465  11.2248  11.2248  11.3344  11.3344  11.3390  11.3390
    12.4599  12.4599  12.7180  12.7180  13.5157  13.5157  13.6156  13.6156
    17.6668  17.6668  19.2517  19.2517  19.2525

          k = 0.0000 0.2500-0.5000 (  2740 PWs)   bands (ev):

    -7.1496  -7.1492  -7.1492  -7.1490  -6.5788  -6.5753  -6.5753  -6.5716
     5.2791   5.2791   5.2805   5.3263   5.3783   5.5402   5.5402   5.6517
     6.2220   6.2519   6.2519   6.2836   6.6180   6.6180   6.6313   6.7591
     6.8986   7.2656   7.2656   7.4598   7.4755   7.5034   7.5034   7.5550
     9.7096   9.7369   9.7369   9.8047   9.9848  10.0357  10.0357  10.0677
    10.1162  10.2699  10.2867  10.2867  10.3431  10.3431  10.3972  10.4626
    10.6138  10.6613  10.6613  10.6882  10.9458  10.9458  10.9666  10.9882
    11.1717  11.1835  11.1835  11.2777  11.2931  11.2972  11.3638  11.3638
    12.7722  12.8871  12.8871  13.0007  13.1524  13.1966  13.1966  13.2415
    18.0173  18.0362  18.0362  18.0565  20.8589

          k = 0.1250 0.1250 0.1250 (  2743 PWs)   bands (ev):

    -7.9030  -6.9266  -6.6817  -6.6817  -6.6817  -6.6311  -6.6311  -6.6311
     4.3454   4.3454   4.3454   4.6085   5.3418   5.3418   5.3418   6.4771
     6.4771   6.4771   6.6204   6.6204   6.6204   6.6946   6.6946   7.2111
     7.2111   7.2111   7.7040   7.7040   7.7040   7.9714   8.4506   8.4506
     9.2609   9.2609   9.2609   9.6171   9.6171  10.0008  10.0642  10.0642
    10.0642  10.2751  10.2751  10.2751  10.6018  10.6018  10.6018  10.6212
    10.6212  10.7225  10.7225  10.7225  10.9132  10.9132  10.9395  10.9395
    10.9395  11.0320  11.2556  11.2556  11.2556  11.3931  11.3931  11.3931
    13.3326  13.3326  13.3489  13.3489  13.3489  13.3563  13.3563  13.3563
    14.7670  17.5953  18.6755  18.6755  18.6755

          k =-0.2500-0.2500-0.2500 (  2764 PWs)   bands (ev):

    -7.4499  -7.4412  -6.6701  -6.6701  -6.6701  -6.6498  -6.6498  -6.6498
     5.0095   5.0095   5.0095   5.1107   5.1107   5.1107   6.0774   6.1164
     6.2585   6.2585   6.2585   6.6890   6.6890   6.6890   6.7485   6.7485
     6.7485   6.9783   6.9783   7.4453   7.4453   7.4453   7.8620   7.8620
     9.4899   9.4899   9.4899   9.6731   9.6731  10.1155  10.1201  10.1201
    10.1201  10.4483  10.4483  10.4483  10.5061  10.5061  10.5061  10.7257
    10.7257  10.8419  10.8419  10.8419  10.8700  11.0555  11.0555  11.0555
    11.2439  11.2439  11.2439  11.2991  11.2991  11.4009  11.4009  11.4009
    13.0386  13.0386  13.0386  13.0550  13.0550  13.0701  13.0701  13.0701
    16.4097  16.5597  19.6311  19.6311  19.6311

          k =-0.3750-0.3750-0.1250 (  2734 PWs)   bands (ev):

    -7.5002  -7.1697  -6.9648  -6.7688  -6.7688  -6.5936  -6.5538  -6.5538
     4.9610   4.9707   4.9707   5.2820   5.4359   5.4966   5.4966   6.2195
     6.2249   6.2249   6.2612   6.6511   6.6641   6.6641   6.6952   6.6952
     6.8264   7.0779   7.0779   7.2669   7.3778   7.7509   7.7588   8.0484
     9.3520   9.5422   9.7588   9.7588   9.7829  10.0583  10.0945  10.0945
    10.2856  10.2861  10.4193  10.4193  10.4403  10.5523  10.5523  10.5580
    10.5682  10.6486  10.6492  10.6492  10.8402  10.8790  10.8790  10.9582
    11.0693  11.2412  11.2728  11.2997  11.2997  11.3587  11.3587  11.4213
    12.6916  12.8375  12.8827  12.8827  13.2790  13.3335  13.3412  13.3412
    16.6936  17.6046  18.6699  19.3599  19.3599

          k = 0.3750 0.3750-0.1250 (  2734 PWs)   bands (ev):

    -7.5001  -7.1697  -6.9648  -6.7686  -6.7686  -6.5939  -6.5540  -6.5540
     4.9673   4.9715   4.9715   5.2417   5.4968   5.5014   5.5014   6.1198
     6.2270   6.2270   6.3423   6.5654   6.5654   6.6588   6.8184   6.8184
     6.8265   7.0393   7.0393   7.1536   7.5013   7.7428   7.7695   7.9970
     9.3796   9.5554   9.9421   9.9421  10.0195  10.0195  10.0412  10.0428
    10.0550  10.1759  10.2124  10.2124  10.3970  10.4414  10.4964  10.4964
    10.6575  10.6958  10.6958  10.7104  10.8945  10.9470  11.0940  11.0940
    11.2146  11.2146  11.2307  11.2678  11.2751  11.2770  11.3466  11.3466
    12.7386  12.7976  12.8799  12.8799  13.2527  13.3405  13.3405  13.3521
    16.6937  17.6030  18.6722  19.3607  19.3607

          k =-0.2500-0.2500 0.0000 (  2742 PWs)   bands (ev):

    -7.6381  -7.0147  -7.0145  -6.7183  -6.7183  -6.6001  -6.6001  -6.5444
     4.7690   4.7690   5.0740   5.0792   5.2398   5.2398   5.6999   5.9643
     6.3126   6.3126   6.5829   6.6742   6.6742   6.7876   6.8546   6.9194
     7.0129   7.1589   7.1589   7.2019   7.2019   7.4838   7.8305   8.1189
     9.5553   9.6070   9.6355   9.6355   9.7729  10.0730  10.0730  10.1295
    10.2415  10.2415  10.3045  10.3842  10.4462  10.5567  10.5587  10.5587
    10.6308  10.6631  10.6631  10.7414  10.7631  10.8191  11.0480  11.0480
    11.1033  11.2690  11.2690  11.3381  11.3682  11.3682  11.3839  11.4048
    13.0429  13.0448  13.0526  13.0526  13.0620  13.2046  13.2046  13.2340
    16.0087  18.0604  18.0622  19.3735  19.3735

 ------ SPIN DOWN ----------


          k = 0.0000 0.0000 0.0000 (  2733 PWs)   bands (ev):

    -8.0785  -6.6875  -6.6871  -6.6871  -6.6871  -6.6187  -6.6187  -6.6187
     4.0280   4.0280   4.0280   4.0330   5.3280   5.3280   5.3280   6.5218
     6.5218   6.5314   6.5314   6.5314   6.5625   6.5625   6.5625   7.9527
     7.9527   7.9527   7.9568   7.9568   7.9568   8.8312   8.8312   8.8312
     9.2552   9.2552   9.2624   9.5586   9.5586   9.6940   9.8760   9.8760
     9.9429   9.9429   9.9429  10.2282  10.2282  10.2282  10.4852  10.4852
    10.4852  10.5993  10.5993  10.5993  10.9111  10.9111  11.0392  11.0392
    11.0392  11.1789  11.2634  11.2634  11.2634  11.3828  11.3828  11.3828
    13.5444  13.5444  13.6036  13.6036  13.6036  13.6877  13.6877  13.6877
    13.7598  17.7974  17.7999  17.7999  17.7999

          k =-0.1250 0.1250 0.1250 (  2743 PWs)   bands (ev):

    -7.9029  -6.9263  -6.6810  -6.6809  -6.6809  -6.6322  -6.6320  -6.6320
     4.3462   4.3462   4.3510   4.6035   5.3429   5.3429   5.3450   6.4322
     6.4406   6.4406   6.6294   6.6725   6.6725   6.6926   6.7363   7.1941
     7.1941   7.2333   7.6860   7.6860   7.6986   7.9652   8.3984   8.4064
     9.2795   9.3365   9.3365   9.6767   9.8228   9.9600  10.0416  10.0416
    10.1098  10.2183  10.2183  10.2473  10.3722  10.5191  10.5398  10.5398
    10.5502  10.6347  10.6868  10.6868  10.8966  10.9923  11.1143  11.1143
    11.1171  11.1774  11.2581  11.2581  11.2796  11.3130  11.3420  11.3420
    13.2117  13.2781  13.2781  13.2919  13.3820  13.4198  13.4198  13.4641
    14.7667  17.5938  18.6786  18.6786  18.9415

          k = 0.2500-0.2500-0.2500 (  2764 PWs)   bands (ev):

    -7.4454  -7.4454  -6.6642  -6.6642  -6.6602  -6.6602  -6.6558  -6.6558
     5.0499   5.0499   5.0643   5.0643   5.0711   5.0711   6.0917   6.0917
     6.3226   6.3226   6.3877   6.3877   6.4627   6.4627   6.8538   6.8538
     7.0123   7.0123   7.3113   7.3113   7.4842   7.4842   7.6354   7.6354
     9.6322   9.6322   9.8168   9.8168   9.8869   9.8869  10.0221  10.0221
    10.1585  10.1585  10.2210  10.2210  10.5325  10.5325  10.6419  10.6419
    10.6586  10.6586  10.8692  10.8692  10.9629  10.9629  11.2432  11.2432
    11.2520  11.2520  11.2967  11.2967  11.3291  11.3291  11.4318  11.4318
    13.0373  13.0373  13.0438  13.0438  13.0518  13.0518  13.0623  13.0623
    16.4826  16.4826  19.6527  19.6527  19.7119

          k = 0.0000 0.0000 0.2500 (  2706 PWs)   bands (ev):

    -7.8497  -6.8065  -6.7519  -6.7517  -6.7517  -6.7513  -6.5653  -6.5653
     4.4894   4.4894   4.4904   4.4946   5.2309   5.5189   5.5189   6.5258
     6.5258   6.5460   6.5828   6.5900   6.6188   6.6188   6.6776   7.0594
     7.0594   7.1660   7.1660   7.4593   7.9686   7.9737   8.6484   8.6576
     8.9537   9.5323   9.6265   9.6265   9.8120   9.9776  10.0548  10.0548
    10.0943  10.1099  10.1838  10.2768  10.2768  10.3950  10.4088  10.5431
    10.5431  10.6118  10.6118  10.6570  10.9097  11.0069  11.0069  11.0482
    11.0542  11.1677  11.2403  11.2926  11.2926  11.3455  11.3455  11.3771
    12.8758  13.0370  13.0370  13.0404  13.5217  13.5649  13.6426  13.6426
    15.2134  18.5668  18.5679  18.5679  18.5684

          k = 0.3750-0.3750-0.1250 (  2734 PWs)   bands (ev):

    -7.5001  -7.1696  -6.9648  -6.7688  -6.7686  -6.5939  -6.5541  -6.5538
     4.9613   4.9635   4.9752   5.3040   5.4213   5.4962   5.5177   6.1726
     6.2074   6.2332   6.2622   6.5859   6.5882   6.7421   6.7460   6.8580
     6.8867   6.9196   6.9900   7.3540   7.3730   7.7174   7.7570   8.0118
     9.4542   9.6490   9.8201   9.8927   9.9536   9.9663  10.0347  10.1361
    10.1388  10.1665  10.2083  10.2856  10.3135  10.3200  10.4754  10.5093
    10.7302  10.7359  10.7397  10.7517  10.8756  10.9038  11.0375  11.0754
    11.1653  11.1928  11.2231  11.2548  11.3296  11.3334  11.3514  11.4078
    12.7364  12.7802  12.8321  12.9285  13.2333  13.2563  13.3620  13.4309
    16.6942  17.6020  18.6704  19.3624  19.3640

          k = 0.2500-0.2500 0.0000 (  2742 PWs)   bands (ev):

    -7.6380  -7.0145  -7.0145  -6.7180  -6.7180  -6.6008  -6.6005  -6.5444
     4.7685   4.7736   5.0650   5.0650   5.2608   5.2609   5.6981   5.9615
     6.2832   6.2994   6.5243   6.7165   6.7425   6.7425   6.9111   6.9111
     6.9278   7.1564   7.1564   7.1861   7.4479   7.4479   7.6283   8.1210
     9.6563   9.6563   9.7877   9.8472   9.9036   9.9036  10.0424  10.1097
    10.1315  10.2245  10.2275  10.2275  10.2275  10.3600  10.3600  10.5139
    10.7167  10.7489  10.7489  10.8256  10.9010  11.0936  11.0936  11.1122
    11.2070  11.2070  11.2298  11.2410  11.2766  11.3429  11.4033  11.4033
    13.0400  13.0444  13.0553  13.0553  13.1119  13.1494  13.1494  13.2814
    16.0074  18.0612  18.0612  19.3780  19.3780

          k = 0.0000 0.0000-0.5000 (  2762 PWs)   bands (ev):

    -7.3086  -7.3086  -6.8144  -6.8144  -6.8143  -6.8142  -6.5110  -6.5110
     5.0176   5.0176   5.0246   5.0246   5.7672   5.7672   6.0978   6.0978
     6.1036   6.1036   6.4017   6.4017   6.6492   6.6492   6.6815   6.6815
     6.7209   6.7209   6.7273   6.7273   8.1474   8.1474   8.1584   8.1584
     9.2480   9.2480   9.9485   9.9485  10.0288  10.0288  10.0440  10.0440
    10.0471  10.0471  10.1681  10.1681  10.3482  10.3482  10.4945  10.4945
    10.5172  10.5172  10.5805  10.5805  10.9102  10.9102  11.0032  11.0032
    11.1465  11.1465  11.2248  11.2248  11.3344  11.3344  11.3389  11.3390
    12.4599  12.4599  12.7180  12.7180  13.5157  13.5157  13.6156  13.6156
    17.6668  17.6668  19.2517  19.2517  19.2525

          k = 0.0000 0.2500-0.5000 (  2740 PWs)   bands (ev):

    -7.1496  -7.1492  -7.1492  -7.1490  -6.5788  -6.5753  -6.5753  -6.5716
     5.2791   5.2791   5.2805   5.3263   5.3783   5.5402   5.5402   5.6517
     6.2220   6.2519   6.2519   6.2836   6.6180   6.6180   6.6313   6.7591
     6.8986   7.2656   7.2656   7.4598   7.4755   7.5034   7.5034   7.5550
     9.7096   9.7369   9.7369   9.8047   9.9848  10.0357  10.0357  10.0677
    10.1162  10.2699  10.2867  10.2867  10.3431  10.3431  10.3972  10.4626
    10.6138  10.6613  10.6613  10.6882  10.9458  10.9458  10.9666  10.9882
    11.1717  11.1835  11.1835  11.2777  11.2931  11.2972  11.3638  11.3638
    12.7722  12.8871  12.8871  13.0007  13.1524  13.1966  13.1967  13.2415
    18.0173  18.0362  18.0362  18.0565  20.8589

          k = 0.1250 0.1250 0.1250 (  2743 PWs)   bands (ev):

    -7.9030  -6.9266  -6.6817  -6.6817  -6.6817  -6.6311  -6.6311  -6.6311
     4.3454   4.3454   4.3454   4.6085   5.3417   5.3417   5.3418   6.4771
     6.4771   6.4771   6.6204   6.6204   6.6204   6.6946   6.6946   7.2111
     7.2111   7.2111   7.7040   7.7040   7.7040   7.9714   8.4506   8.4506
     9.2609   9.2609   9.2609   9.6171   9.6171  10.0008  10.0642  10.0642
    10.0642  10.2751  10.2751  10.2751  10.6018  10.6018  10.6018  10.6212
    10.6212  10.7225  10.7225  10.7225  10.9132  10.9132  10.9395  10.9395
    10.9395  11.0320  11.2556  11.2556  11.2556  11.3931  11.3931  11.3931
    13.3326  13.3326  13.3489  13.3489  13.3489  13.3563  13.3563  13.3563
    14.7670  17.5953  18.6755  18.6756  18.6756

          k =-0.2500-0.2500-0.2500 (  2764 PWs)   bands (ev):

    -7.4499  -7.4412  -6.6701  -6.6701  -6.6701  -6.6498  -6.6498  -6.6498
     5.0095   5.0095   5.0095   5.1107   5.1107   5.1107   6.0774   6.1164
     6.2585   6.2585   6.2585   6.6890   6.6890   6.6890   6.7485   6.7485
     6.7485   6.9783   6.9783   7.4453   7.4453   7.4453   7.8620   7.8620
     9.4899   9.4899   9.4899   9.6731   9.6731  10.1155  10.1201  10.1201
    10.1201  10.4483  10.4483  10.4483  10.5061  10.5061  10.5061  10.7257
    10.7257  10.8419  10.8419  10.8419  10.8700  11.0555  11.0555  11.0555
    11.2439  11.2439  11.2439  11.2991  11.2991  11.4009  11.4009  11.4009
    13.0386  13.0386  13.0386  13.0550  13.0550  13.0701  13.0701  13.0701
    16.4097  16.5597  19.6311  19.6311  19.6311

          k =-0.3750-0.3750-0.1250 (  2734 PWs)   bands (ev):

    -7.5002  -7.1697  -6.9648  -6.7688  -6.7688  -6.5936  -6.5538  -6.5538
     4.9610   4.9707   4.9707   5.2820   5.4359   5.4966   5.4966   6.2195
     6.2249   6.2249   6.2612   6.6511   6.6641   6.6641   6.6952   6.6952
     6.8264   7.0779   7.0779   7.2669   7.3778   7.7509   7.7588   8.0484
     9.3520   9.5422   9.7588   9.7588   9.7829  10.0583  10.0945  10.0945
    10.2856  10.2861  10.4193  10.4193  10.4403  10.5523  10.5523  10.5580
    10.5682  10.6486  10.6492  10.6492  10.8402  10.8790  10.8790  10.9582
    11.0693  11.2412  11.2728  11.2997  11.2997  11.3587  11.3587  11.4213
    12.6916  12.8375  12.8827  12.8827  13.2790  13.3335  13.3412  13.3412
    16.6936  17.6046  18.6699  19.3599  19.3599

          k = 0.3750 0.3750-0.1250 (  2734 PWs)   bands (ev):

    -7.5001  -7.1697  -6.9648  -6.7686  -6.7686  -6.5939  -6.5540  -6.5540
     4.9673   4.9715   4.9715   5.2417   5.4968   5.5014   5.5014   6.1198
     6.2270   6.2270   6.3423   6.5654   6.5654   6.6588   6.8184   6.8184
     6.8265   7.0393   7.0393   7.1536   7.5013   7.7428   7.7695   7.9970
     9.3796   9.5554   9.9421   9.9421  10.0195  10.0195  10.0412  10.0428
    10.0550  10.1759  10.2124  10.2124  10.3970  10.4414  10.4964  10.4964
    10.6575  10.6958  10.6958  10.7103  10.8945  10.9470  11.0940  11.0940
    11.2146  11.2146  11.2307  11.2678  11.2751  11.2770  11.3466  11.3466
    12.7386  12.7976  12.8799  12.8799  13.2527  13.3405  13.3405  13.3521
    16.6937  17.6030  18.6722  19.3607  19.3607

          k =-0.2500-0.2500 0.0000 (  2742 PWs)   bands (ev):

    -7.6381  -7.0147  -7.0145  -6.7183  -6.7183  -6.6001  -6.6001  -6.5444
     4.7690   4.7690   5.0740   5.0792   5.2398   5.2398   5.6999   5.9643
     6.3126   6.3126   6.5829   6.6742   6.6742   6.7876   6.8546   6.9194
     7.0129   7.1589   7.1589   7.2019   7.2019   7.4838   7.8305   8.1189
     9.5553   9.6070   9.6355   9.6355   9.7729  10.0730  10.0730  10.1295
    10.2415  10.2415  10.3045  10.3842  10.4462  10.5567  10.5587  10.5587
    10.6308  10.6631  10.6631  10.7414  10.7631  10.8191  11.0480  11.0480
    11.1033  11.2690  11.2690  11.3381  11.3682  11.3682  11.3839  11.4048
    13.0429  13.0448  13.0526  13.0526  13.0620  13.2046  13.2046  13.2340
    16.0087  18.0604  18.0622  19.3735  19.3735

     the Fermi energy is    11.9555 ev

!    total energy              =    -942.01610087 Ry
     Harris-Foulkes estimate   =    -942.01606496 Ry
     estimated scf accuracy    <          3.1E-09 Ry

     The total energy is the sum of the following terms:

     one-electron contribution =     -56.32809382 Ry
     hartree contribution      =     175.70978433 Ry
     xc contribution           =    -297.54038555 Ry
     ewald contribution        =    -763.85740583 Ry
     Hubbard energy            =       0.00000000 Ry
     smearing contrib. (-TS)   =       0.00000000 Ry

     total magnetization       =     0.00 Bohr mag/cell
     absolute magnetization    =    12.29 Bohr mag/cell

     convergence has been achieved in  13 iterations

     Writing output data file nio.save
 
     init_run     :     19.04s CPU     21.01s WALL (       1 calls)
     electrons    :    461.10s CPU    486.92s WALL (       1 calls)

     Called by init_run:
     wfcinit      :      5.80s CPU      6.87s WALL (       1 calls)
     potinit      :      1.20s CPU      1.39s WALL (       1 calls)

     Called by electrons:
     c_bands      :    159.45s CPU    169.10s WALL (      13 calls)
     sum_band     :    164.85s CPU    169.65s WALL (      13 calls)
     v_of_rho     :     13.40s CPU     15.07s WALL (      14 calls)
     newd         :    128.43s CPU    138.17s WALL (      14 calls)
     mix_rho      :      2.32s CPU      2.54s WALL (      13 calls)

     Called by c_bands:
     init_us_2    :      1.98s CPU      2.07s WALL (     196 calls)
     cegterg      :    153.45s CPU    162.08s WALL (      91 calls)

     Called by *egterg:
     h_psi        :    120.75s CPU    125.59s WALL (     308 calls)
     s_psi        :      9.90s CPU      9.90s WALL (     315 calls)
     g_psi        :      0.54s CPU      0.51s WALL (     210 calls)
     cdiaghg      :      6.55s CPU      6.55s WALL (     301 calls)

     Called by h_psi:
     add_vuspsi   :      9.43s CPU      9.48s WALL (     308 calls)

     General routines
     calbec       :     17.30s CPU     17.32s WALL (     805 calls)
     fft          :     11.96s CPU     13.30s WALL (     424 calls)
     ffts         :      0.14s CPU      0.17s WALL (      54 calls)
     fftw         :     68.46s CPU     75.31s WALL (   39045 calls)
     interpolate  :      2.27s CPU      2.82s WALL (      54 calls)
     davcio       :      0.01s CPU      3.27s WALL (     574 calls)
 
     Parallel routines
     fft_scatter  :     15.58s CPU     18.04s WALL (   39523 calls)
     EXX routines
 
     PWSCF        :  8m 0.50s CPU     8m28.42s WALL

 
   This run was terminated on:  17: 1:50  16Jun2012            

=------------------------------------------------------------------------------=
   JOB DONE.
=------------------------------------------------------------------------------=
