
     Program PWSCF v.5.0        starts on 16Jun2012 at 17: 1:57 

     This program is part of the open-source Quantum ESPRESSO suite
     for quantum simulation of materials; please cite
         "P. Giannozzi et al., J. Phys.:Condens. Matter 21 395502 (2009);
          URL http://www.quantum-espresso.org", 
     in publications or presentations arising from this work. More details at
     http://www.quantum-espresso.org/quote.php

     Parallel version (MPI), running on     4 processors
     K-points division:     npool     =    4

     Current dimensions of program PWSCF are:
     Max number of different atomic species (ntypx) = 10
     Max number of k-points (npk) =  40000
     Max angular momentum in pseudopotentials (lmaxx) =  3
     Waiting for input...
     Reading input from standard input
               file Ni.pbe-nd-rrkjus.UPF: wavefunction(s)  4S renormalized
               file Ni.pbe-nd-rrkjus.UPF: wavefunction(s)  4S renormalized
               file O.pbe-rrkjus.UPF: wavefunction(s)  2S renormalized
               file O.pbe-rrkjus.UPF: wavefunction(s)  2S renormalized

     Subspace diagonalization in iterative solution of the eigenvalue problem:
     a serial algorithm will be used

 
     G-vector sticks info
     --------------------
     sticks:   dense  smooth     PW     G-vecs:    dense   smooth      PW
     Sum        2587    1039    301                86547    22075    3479
 


     bravais-lattice index     =            0
     lattice parameter (alat)  =       7.9000  a.u.
     unit-cell volume          =     986.0780 (a.u.)^3
     number of atoms/cell      =           16
     number of atomic types    =            4
     number of electrons       =       128.00
     number of Kohn-Sham states=           77
     kinetic-energy cutoff     =      30.0000  Ry
     charge density cutoff     =     300.0000  Ry
     convergence threshold     =      1.0E-08
     mixing beta               =       0.3000
     number of iterations used =            8  plain     mixing
     Exchange-correlation      =  SLA  PW   PBE  PBE ( 1 4 3 4 0)
     EXX-fraction              =        0.00

     celldm(1)=   7.900000  celldm(2)=   0.000000  celldm(3)=   0.000000
     celldm(4)=   0.000000  celldm(5)=   0.000000  celldm(6)=   0.000000

     crystal axes: (cart. coord. in units of alat)
               a(1) = (   1.000000   1.000000   0.000000 )  
               a(2) = (   1.000000   0.000000   1.000000 )  
               a(3) = (   0.000000   1.000000   1.000000 )  

     reciprocal axes: (cart. coord. in units 2 pi/alat)
               b(1) = (  0.500000  0.500000 -0.500000 )  
               b(2) = (  0.500000 -0.500000  0.500000 )  
               b(3) = ( -0.500000  0.500000  0.500000 )  


     PseudoPot. # 1 for Ni read from file:
     ../pseudo/Ni.pbe-nd-rrkjus.UPF
     MD5 check sum: 8081f0a005c9a5470caab1a58e82ecb2
     Pseudo is Ultrasoft + core correction, Zval = 10.0
     Generated by new atomic code, or converted to UPF format
     Using radial grid of 1203 points,  6 beta functions with: 
                l(1) =   0
                l(2) =   0
                l(3) =   1
                l(4) =   1
                l(5) =   2
                l(6) =   2
     Q(r) pseudized with 0 coefficients 


     PseudoPot. # 2 for Ni read from file:
     ../pseudo/Ni.pbe-nd-rrkjus.UPF
     MD5 check sum: 8081f0a005c9a5470caab1a58e82ecb2
     Pseudo is Ultrasoft + core correction, Zval = 10.0
     Generated by new atomic code, or converted to UPF format
     Using radial grid of 1203 points,  6 beta functions with: 
                l(1) =   0
                l(2) =   0
                l(3) =   1
                l(4) =   1
                l(5) =   2
                l(6) =   2
     Q(r) pseudized with 0 coefficients 


     PseudoPot. # 3 for O  read from file:
     ../pseudo/O.pbe-rrkjus.UPF
     MD5 check sum: 390ba29e75625707450f3bd3f0eb6be9
     Pseudo is Ultrasoft, Zval =  6.0
     Generated by new atomic code, or converted to UPF format
     Using radial grid of 1269 points,  4 beta functions with: 
                l(1) =   0
                l(2) =   0
                l(3) =   1
                l(4) =   1
     Q(r) pseudized with 0 coefficients 


     PseudoPot. # 4 for O  read from file:
     ../pseudo/O.pbe-rrkjus.UPF
     MD5 check sum: 390ba29e75625707450f3bd3f0eb6be9
     Pseudo is Ultrasoft, Zval =  6.0
     Generated by new atomic code, or converted to UPF format
     Using radial grid of 1269 points,  4 beta functions with: 
                l(1) =   0
                l(2) =   0
                l(3) =   1
                l(4) =   1
     Q(r) pseudized with 0 coefficients 


     atomic species   valence    mass     pseudopotential
        Ni1           10.00     1.00000     Ni( 1.00)
        Ni2           10.00     1.00000     Ni( 1.00)
        O1             6.00     1.00000     O ( 1.00)
        O2             6.00     1.00000     O ( 1.00)

     Starting magnetic structure 
     atomic species   magnetization
        Ni1          0.500
        Ni2         -0.500
        O1           0.000
        O2           0.000
 -----
     simplified LDA+U calculation, Hubbard_lmax = 2
     atomic species  L   Hubbard U  Hubbard alpha
        Ni1          2    0.000000    0.000000
        Ni2          2    0.000000    0.000000
        O1           1    0.000000   -0.150000
        O2           1    0.000000    0.000000
 -----

      6 Sym. Ops. (no inversion) found



   Cartesian axes

     site n.     atom                  positions (alat units)
         1           Ni1 tau(   1) = (   0.0000000   0.0000000  -0.5000000  )
         2           Ni1 tau(   2) = (   1.0000000   0.5000000   0.0000000  )
         3           Ni1 tau(   3) = (   0.5000000   1.0000000   0.0000000  )
         4           Ni1 tau(   4) = (   0.5000000   0.5000000   0.5000000  )
         5           Ni2 tau(   5) = (   0.5000000   0.5000000  -0.5000000  )
         6           Ni2 tau(   6) = (   0.5000000   0.0000000   0.0000000  )
         7           Ni2 tau(   7) = (   0.0000000   0.5000000   0.0000000  )
         8           Ni2 tau(   8) = (   1.0000000   1.0000000   0.5000000  )
         9           O1  tau(   9) = (   0.0000000   0.0000000   0.0000000  )
        10           O2  tau(  10) = (   0.5000000   0.5000000   0.0000000  )
        11           O2  tau(  11) = (   0.0000000   0.5000000   0.5000000  )
        12           O2  tau(  12) = (   0.5000000   0.0000000   0.5000000  )
        13           O2  tau(  13) = (   1.0000000   0.5000000   0.5000000  )
        14           O2  tau(  14) = (   0.5000000   1.0000000   0.5000000  )
        15           O2  tau(  15) = (   0.5000000   0.5000000   1.0000000  )
        16           O2  tau(  16) = (   1.0000000   1.0000000   1.0000000  )

     number of k points=    26  gaussian smearing, width (Ry)=  0.0100
                       cart. coord. in units 2pi/alat
        k(    1) = (   0.0000000   0.0000000   0.0000000), wk =   0.0156250
        k(    2) = (  -0.1250000   0.1250000   0.1250000), wk =   0.0937500
        k(    3) = (   0.2500000  -0.2500000  -0.2500000), wk =   0.0468750
        k(    4) = (   0.0000000   0.0000000   0.2500000), wk =   0.0937500
        k(    5) = (   0.3750000  -0.3750000  -0.1250000), wk =   0.1875000
        k(    6) = (   0.2500000  -0.2500000   0.0000000), wk =   0.0937500
        k(    7) = (   0.0000000   0.0000000  -0.5000000), wk =   0.0468750
        k(    8) = (   0.0000000   0.2500000  -0.5000000), wk =   0.0937500
        k(    9) = (   0.1250000   0.1250000   0.1250000), wk =   0.0312500
        k(   10) = (  -0.2500000  -0.2500000  -0.2500000), wk =   0.0156250
        k(   11) = (  -0.3750000  -0.3750000  -0.1250000), wk =   0.0937500
        k(   12) = (   0.3750000   0.3750000  -0.1250000), wk =   0.0937500
        k(   13) = (  -0.2500000  -0.2500000   0.0000000), wk =   0.0937500
        k(   14) = (   0.0000000   0.0000000   0.0000000), wk =   0.0156250
        k(   15) = (  -0.1250000   0.1250000   0.1250000), wk =   0.0937500
        k(   16) = (   0.2500000  -0.2500000  -0.2500000), wk =   0.0468750
        k(   17) = (   0.0000000   0.0000000   0.2500000), wk =   0.0937500
        k(   18) = (   0.3750000  -0.3750000  -0.1250000), wk =   0.1875000
        k(   19) = (   0.2500000  -0.2500000   0.0000000), wk =   0.0937500
        k(   20) = (   0.0000000   0.0000000  -0.5000000), wk =   0.0468750
        k(   21) = (   0.0000000   0.2500000  -0.5000000), wk =   0.0937500
        k(   22) = (   0.1250000   0.1250000   0.1250000), wk =   0.0312500
        k(   23) = (  -0.2500000  -0.2500000  -0.2500000), wk =   0.0156250
        k(   24) = (  -0.3750000  -0.3750000  -0.1250000), wk =   0.0937500
        k(   25) = (   0.3750000   0.3750000  -0.1250000), wk =   0.0937500
        k(   26) = (  -0.2500000  -0.2500000   0.0000000), wk =   0.0937500

     Dense  grid:    86547 G-vectors     FFT dimensions: (  64,  64,  64)

     Smooth grid:    22075 G-vectors     FFT dimensions: (  40,  40,  40)

     Largest allocated arrays     est. size (Mb)     dimensions
        Kohn-Sham Wavefunctions         3.25 Mb     (   2764,   77)
        Atomic wavefunctions            3.37 Mb     (   2764,   80)
        NL pseudopotentials             8.77 Mb     (   2764,  208)
        Each V/rho on FFT grid          8.00 Mb     ( 262144,   2)
        Each G-vector array             0.66 Mb     (  86547)
        G-vector shells                 0.00 Mb     (    635)
     Largest temporary arrays     est. size (Mb)     dimensions
        Auxiliary wavefunctions        12.99 Mb     (   2764,  308)
        Each subspace H/S matrix        1.45 Mb     ( 308, 308)
        Each <psi_i|beta_j> matrix      0.24 Mb     (    208,   77)
        Arrays for rho mixing          32.00 Mb     ( 262144,   8)

     Check: negative/imaginary core charge=   -0.000047    0.000000

     The initial density is read from file :
     ./temp/nio.save/charge-density.dat

     Number of +U iterations with fixed ns =  0
     Starting occupations:
 --- enter write_ns ---
 LDA+U parameters:
U( 1)     =  0.00000000
alpha( 1) =  0.00000000
U( 2)     =  0.00000000
alpha( 2) =  0.00000000
U( 3)     =  0.00000000
alpha( 3) = -0.15000000
U( 4)     =  0.00000000
alpha( 4) =  0.00000000
atom    1   Tr[ns(na)] (up, down, total) =   4.95241  3.75361  8.70602
   spin  1
    eigenvalues: 
  0.980  0.980  0.997  0.997  0.997
    eigenvectors:
  0.000  1.000  0.000  0.000  0.000
  0.000  0.000  0.167  0.500  0.333
  0.000  0.000  0.167  0.500  0.333
  1.000  0.000  0.000  0.000  0.000
  0.000  0.000  0.667  0.000  0.333
    occupations:
  0.980  0.000  0.000  0.000  0.000
  0.000  0.997  0.000  0.000  0.000
  0.000  0.000  0.997  0.000  0.000
  0.000  0.000  0.000  0.980  0.000
  0.000  0.000  0.000  0.000  0.997
   spin  2
    eigenvalues: 
  0.384  0.384  0.995  0.995  0.995
    eigenvectors:
  1.000  0.000  0.000  0.000  0.000
  0.000  0.000  0.167  0.500  0.333
  0.000  0.000  0.167  0.500  0.333
  0.000  1.000  0.000  0.000  0.000
  0.000  0.000  0.667  0.000  0.333
    occupations:
  0.384  0.001  0.001  0.000  0.001
  0.001  0.995  0.000  0.001  0.000
  0.001  0.000  0.995 -0.001  0.000
  0.000  0.001 -0.001  0.384  0.000
  0.001  0.000  0.000  0.000  0.995
atomic mag. moment =     1.198793
atom    2   Tr[ns(na)] (up, down, total) =   4.95241  3.75361  8.70602
   spin  1
    eigenvalues: 
  0.980  0.980  0.997  0.997  0.997
    eigenvectors:
  0.750  0.250  0.000  0.000  0.000
  0.000  0.000  0.667  0.000  0.333
  0.000  0.000  0.167  0.500  0.333
  0.250  0.750  0.000  0.000  0.000
  0.000  0.000  0.167  0.500  0.333
    occupations:
  0.980  0.000  0.000  0.000  0.000
  0.000  0.997  0.000  0.000  0.000
  0.000  0.000  0.997  0.000  0.000
  0.000  0.000  0.000  0.980  0.000
  0.000  0.000  0.000  0.000  0.997
   spin  2
    eigenvalues: 
  0.384  0.384  0.995  0.995  0.995
    eigenvectors:
  0.250  0.750  0.000  0.000  0.000
  0.000  0.000  0.667  0.000  0.333
  0.000  0.000  0.167  0.500  0.333
  0.750  0.250  0.000  0.000  0.000
  0.000  0.000  0.167  0.500  0.333
    occupations:
  0.384  0.001  0.001  0.000  0.001
  0.001  0.995  0.000  0.001  0.000
  0.001  0.000  0.995 -0.001  0.000
  0.000  0.001 -0.001  0.384  0.000
  0.001  0.000  0.000  0.000  0.995
atomic mag. moment =     1.198793
atom    3   Tr[ns(na)] (up, down, total) =   4.95241  3.75361  8.70602
   spin  1
    eigenvalues: 
  0.980  0.980  0.997  0.997  0.997
    eigenvectors:
  0.750  0.250  0.000  0.000  0.000
  0.000  0.000  0.167  0.500  0.333
  0.000  0.000  0.667  0.000  0.333
  0.250  0.750  0.000  0.000  0.000
  0.000  0.000  0.167  0.500  0.333
    occupations:
  0.980  0.000  0.000  0.000  0.000
  0.000  0.997  0.000  0.000  0.000
  0.000  0.000  0.997  0.000  0.000
  0.000  0.000  0.000  0.980  0.000
  0.000  0.000  0.000  0.000  0.997
   spin  2
    eigenvalues: 
  0.384  0.384  0.995  0.995  0.995
    eigenvectors:
  0.250  0.750  0.000  0.000  0.000
  0.000  0.000  0.167  0.500  0.333
  0.000  0.000  0.667  0.000  0.333
  0.750  0.250  0.000  0.000  0.000
  0.000  0.000  0.167  0.500  0.333
    occupations:
  0.384  0.001  0.001  0.000  0.001
  0.001  0.995  0.000  0.001  0.000
  0.001  0.000  0.995 -0.001  0.000
  0.000  0.001 -0.001  0.384  0.000
  0.001  0.000  0.000  0.000  0.995
atomic mag. moment =     1.198793
atom    4   Tr[ns(na)] (up, down, total) =   4.95241  3.75362  8.70603
   spin  1
    eigenvalues: 
  0.980  0.980  0.997  0.997  0.997
    eigenvectors:
  0.294  0.706  0.000  0.000  0.000
  0.000  0.000  0.038  0.629  0.333
  0.000  0.000  0.347  0.319  0.333
  0.706  0.294  0.000  0.000  0.000
  0.000  0.000  0.615  0.052  0.333
    occupations:
  0.980  0.000  0.000  0.000  0.000
  0.000  0.997  0.000  0.000  0.000
  0.000  0.000  0.997  0.000  0.000
  0.000  0.000  0.000  0.980  0.000
  0.000  0.000  0.000  0.000  0.997
   spin  2
    eigenvalues: 
  0.384  0.384  0.995  0.995  0.995
    eigenvectors:
  0.565  0.435  0.000  0.000  0.000
  0.000  0.000  0.116  0.551  0.333
  0.000  0.000  0.224  0.443  0.333
  0.435  0.565  0.000  0.000  0.000
  0.000  0.000  0.661  0.006  0.333
    occupations:
  0.384  0.001  0.001  0.000  0.001
  0.001  0.995  0.000  0.001  0.000
  0.001  0.000  0.995 -0.001  0.000
  0.000  0.001 -0.001  0.384  0.000
  0.001  0.000  0.000  0.000  0.995
atomic mag. moment =     1.198788
atom    5   Tr[ns(na)] (up, down, total) =   3.75362  4.95241  8.70602
   spin  1
    eigenvalues: 
  0.384  0.384  0.995  0.995  0.995
    eigenvectors:
  0.295  0.705  0.000  0.000  0.000
  0.000  0.000  0.133  0.533  0.333
  0.000  0.000  0.202  0.464  0.333
  0.705  0.295  0.000  0.000  0.000
  0.000  0.000  0.664  0.002  0.333
    occupations:
  0.384  0.001  0.001  0.000  0.001
  0.001  0.995  0.000  0.001  0.000
  0.001  0.000  0.995 -0.001  0.000
  0.000  0.001 -0.001  0.384  0.000
  0.001  0.000  0.000  0.000  0.995
   spin  2
    eigenvalues: 
  0.980  0.980  0.997  0.997  0.997
    eigenvectors:
  0.491  0.509  0.000  0.000  0.000
  0.000  0.000  0.012  0.655  0.333
  0.000  0.000  0.417  0.250  0.333
  0.509  0.491  0.000  0.000  0.000
  0.000  0.000  0.571  0.096  0.333
    occupations:
  0.980  0.000  0.000  0.000  0.000
  0.000  0.997  0.000  0.000  0.000
  0.000  0.000  0.997  0.000  0.000
  0.000  0.000  0.000  0.980  0.000
  0.000  0.000  0.000  0.000  0.997
atomic mag. moment =    -1.198791
atom    6   Tr[ns(na)] (up, down, total) =   3.75362  4.95241  8.70602
   spin  1
    eigenvalues: 
  0.384  0.384  0.995  0.995  0.995
    eigenvectors:
  0.250  0.750  0.000  0.000  0.000
  0.000  0.000  0.167  0.500  0.333
  0.000  0.000  0.667  0.000  0.333
  0.750  0.250  0.000  0.000  0.000
  0.000  0.000  0.167  0.500  0.333
    occupations:
  0.384  0.001  0.001  0.000  0.001
  0.001  0.995  0.000  0.001  0.000
  0.001  0.000  0.995 -0.001  0.000
  0.000  0.001 -0.001  0.384  0.000
  0.001  0.000  0.000  0.000  0.995
   spin  2
    eigenvalues: 
  0.980  0.980  0.997  0.997  0.997
    eigenvectors:
  0.750  0.250  0.000  0.000  0.000
  0.000  0.000  0.167  0.500  0.333
  0.000  0.000  0.667  0.000  0.333
  0.250  0.750  0.000  0.000  0.000
  0.000  0.000  0.167  0.500  0.333
    occupations:
  0.980  0.000  0.000  0.000  0.000
  0.000  0.997  0.000  0.000  0.000
  0.000  0.000  0.997  0.000  0.000
  0.000  0.000  0.000  0.980  0.000
  0.000  0.000  0.000  0.000  0.997
atomic mag. moment =    -1.198792
atom    7   Tr[ns(na)] (up, down, total) =   3.75362  4.95241  8.70602
   spin  1
    eigenvalues: 
  0.384  0.384  0.995  0.995  0.995
    eigenvectors:
  0.250  0.750  0.000  0.000  0.000
  0.000  0.000  0.667  0.000  0.333
  0.000  0.000  0.167  0.500  0.333
  0.750  0.250  0.000  0.000  0.000
  0.000  0.000  0.167  0.500  0.333
    occupations:
  0.384  0.001  0.001  0.000  0.001
  0.001  0.995  0.000  0.001  0.000
  0.001  0.000  0.995 -0.001  0.000
  0.000  0.001 -0.001  0.384  0.000
  0.001  0.000  0.000  0.000  0.995
   spin  2
    eigenvalues: 
  0.980  0.980  0.997  0.997  0.997
    eigenvectors:
  0.750  0.250  0.000  0.000  0.000
  0.000  0.000  0.667  0.000  0.333
  0.000  0.000  0.167  0.500  0.333
  0.250  0.750  0.000  0.000  0.000
  0.000  0.000  0.167  0.500  0.333
    occupations:
  0.980  0.000  0.000  0.000  0.000
  0.000  0.997  0.000  0.000  0.000
  0.000  0.000  0.997  0.000  0.000
  0.000  0.000  0.000  0.980  0.000
  0.000  0.000  0.000  0.000  0.997
atomic mag. moment =    -1.198792
atom    8   Tr[ns(na)] (up, down, total) =   3.75362  4.95241  8.70602
   spin  1
    eigenvalues: 
  0.384  0.384  0.995  0.995  0.995
    eigenvectors:
  1.000  0.000  0.000  0.000  0.000
  0.000  0.000  0.167  0.500  0.333
  0.000  0.000  0.167  0.500  0.333
  0.000  1.000  0.000  0.000  0.000
  0.000  0.000  0.667  0.000  0.333
    occupations:
  0.384  0.001  0.001  0.000  0.001
  0.001  0.995  0.000  0.001  0.000
  0.001  0.000  0.995 -0.001  0.000
  0.000  0.001 -0.001  0.384  0.000
  0.001  0.000  0.000  0.000  0.995
   spin  2
    eigenvalues: 
  0.980  0.980  0.997  0.997  0.997
    eigenvectors:
  0.000  1.000  0.000  0.000  0.000
  0.000  0.000  0.167  0.500  0.333
  0.000  0.000  0.167  0.500  0.333
  1.000  0.000  0.000  0.000  0.000
  0.000  0.000  0.667  0.000  0.333
    occupations:
  0.980  0.000  0.000  0.000  0.000
  0.000  0.997  0.000  0.000  0.000
  0.000  0.000  0.997  0.000  0.000
  0.000  0.000  0.000  0.980  0.000
  0.000  0.000  0.000  0.000  0.997
atomic mag. moment =    -1.198792
atom    9   Tr[ns(na)] (up, down, total) =   2.81114  2.81114  5.62228
   spin  1
    eigenvalues: 
  0.937  0.937  0.938
    eigenvectors:
  0.329  0.338  0.333
  0.624  0.043  0.333
  0.047  0.620  0.333
    occupations:
  0.937  0.000  0.000
  0.000  0.937  0.000
  0.000  0.000  0.937
   spin  2
    eigenvalues: 
  0.937  0.937  0.938
    eigenvectors:
  0.444  0.223  0.333
  0.551  0.116  0.333
  0.006  0.661  0.333
    occupations:
  0.937  0.000  0.000
  0.000  0.937  0.000
  0.000  0.000  0.937
atomic mag. moment =    -0.000001
atom   10   Tr[ns(na)] (up, down, total) =   2.81114  2.81114  5.62228
   spin  1
    eigenvalues: 
  0.937  0.937  0.938
    eigenvectors:
  0.667  0.000  0.333
  0.167  0.500  0.333
  0.167  0.500  0.333
    occupations:
  0.937  0.000  0.000
  0.000  0.937  0.000
  0.000  0.000  0.937
   spin  2
    eigenvalues: 
  0.937  0.937  0.938
    eigenvectors:
  0.667  0.000  0.333
  0.167  0.500  0.333
  0.167  0.500  0.333
    occupations:
  0.937  0.000  0.000
  0.000  0.937  0.000
  0.000  0.000  0.937
atomic mag. moment =     0.000000
atom   11   Tr[ns(na)] (up, down, total) =   2.81114  2.81114  5.62228
   spin  1
    eigenvalues: 
  0.937  0.937  0.938
    eigenvectors:
  0.167  0.500  0.333
  0.667  0.000  0.333
  0.167  0.500  0.333
    occupations:
  0.937  0.000  0.000
  0.000  0.937  0.000
  0.000  0.000  0.937
   spin  2
    eigenvalues: 
  0.937  0.937  0.938
    eigenvectors:
  0.167  0.500  0.333
  0.667  0.000  0.333
  0.167  0.500  0.333
    occupations:
  0.937  0.000  0.000
  0.000  0.937  0.000
  0.000  0.000  0.937
atomic mag. moment =     0.000000
atom   12   Tr[ns(na)] (up, down, total) =   2.81114  2.81114  5.62228
   spin  1
    eigenvalues: 
  0.937  0.937  0.938
    eigenvectors:
  0.167  0.500  0.333
  0.167  0.500  0.333
  0.667  0.000  0.333
    occupations:
  0.937  0.000  0.000
  0.000  0.937  0.000
  0.000  0.000  0.937
   spin  2
    eigenvalues: 
  0.937  0.937  0.938
    eigenvectors:
  0.167  0.500  0.333
  0.167  0.500  0.333
  0.667  0.000  0.333
    occupations:
  0.937  0.000  0.000
  0.000  0.937  0.000
  0.000  0.000  0.937
atomic mag. moment =     0.000000
atom   13   Tr[ns(na)] (up, down, total) =   2.81114  2.81114  5.62228
   spin  1
    eigenvalues: 
  0.937  0.937  0.938
    eigenvectors:
  0.167  0.500  0.333
  0.667  0.000  0.333
  0.167  0.500  0.333
    occupations:
  0.937  0.000  0.000
  0.000  0.937  0.000
  0.000  0.000  0.937
   spin  2
    eigenvalues: 
  0.937  0.937  0.938
    eigenvectors:
  0.167  0.500  0.333
  0.667  0.000  0.333
  0.167  0.500  0.333
    occupations:
  0.937  0.000  0.000
  0.000  0.937  0.000
  0.000  0.000  0.937
atomic mag. moment =     0.000000
atom   14   Tr[ns(na)] (up, down, total) =   2.81114  2.81114  5.62228
   spin  1
    eigenvalues: 
  0.937  0.937  0.938
    eigenvectors:
  0.167  0.500  0.333
  0.167  0.500  0.333
  0.667  0.000  0.333
    occupations:
  0.937  0.000  0.000
  0.000  0.937  0.000
  0.000  0.000  0.937
   spin  2
    eigenvalues: 
  0.937  0.937  0.938
    eigenvectors:
  0.167  0.500  0.333
  0.167  0.500  0.333
  0.667  0.000  0.333
    occupations:
  0.937  0.000  0.000
  0.000  0.937  0.000
  0.000  0.000  0.937
atomic mag. moment =     0.000000
atom   15   Tr[ns(na)] (up, down, total) =   2.81114  2.81114  5.62228
   spin  1
    eigenvalues: 
  0.937  0.937  0.938
    eigenvectors:
  0.667  0.000  0.333
  0.167  0.500  0.333
  0.167  0.500  0.333
    occupations:
  0.937  0.000  0.000
  0.000  0.937  0.000
  0.000  0.000  0.937
   spin  2
    eigenvalues: 
  0.937  0.937  0.938
    eigenvectors:
  0.667  0.000  0.333
  0.167  0.500  0.333
  0.167  0.500  0.333
    occupations:
  0.937  0.000  0.000
  0.000  0.937  0.000
  0.000  0.000  0.937
atomic mag. moment =     0.000000
atom   16   Tr[ns(na)] (up, down, total) =   2.81114  2.81114  5.62229
   spin  1
    eigenvalues: 
  0.937  0.937  0.938
    eigenvectors:
  0.459  0.207  0.333
  0.538  0.129  0.333
  0.003  0.664  0.333
    occupations:
  0.937  0.000  0.000
  0.000  0.937  0.000
  0.000  0.000  0.937
   spin  2
    eigenvalues: 
  0.937  0.937  0.938
    eigenvectors:
  0.422  0.245  0.333
  0.567  0.099  0.333
  0.011  0.656  0.333
    occupations:
  0.937  0.000  0.000
  0.000  0.937  0.000
  0.000  0.000  0.937
atomic mag. moment =     0.000000
N of occupied +U levels = 114.6264629
 --- exit write_ns ---
 Atomic wfc used for LDA+U Projector are NOT orthogonalized
     Starting wfc from file

     total cpu time spent up to now is       15.5 secs

     per-process dynamical memory:    86.3 Mb

     Self-consistent Calculation

     iteration #  1     ecut=    30.00 Ry     beta=0.30
     Davidson diagonalization with overlap
     c_bands:  1 eigenvalues not converged
     ethr =  2.18E-11,  avg # of iterations = 14.2
 --- enter write_ns ---
 LDA+U parameters:
U( 1)     =  0.00000000
alpha( 1) =  0.00000000
U( 2)     =  0.00000000
alpha( 2) =  0.00000000
U( 3)     =  0.00000000
alpha( 3) = -0.15000000
U( 4)     =  0.00000000
alpha( 4) =  0.00000000
atom    1   Tr[ns(na)] (up, down, total) =   4.95242  3.75136  8.70378
   spin  1
    eigenvalues: 
  0.980  0.980  0.997  0.997  0.997
    eigenvectors:
  0.000  1.000  0.000  0.000  0.000
  0.000  0.000  0.161  0.500  0.339
  0.000  0.000  0.161  0.500  0.339
  1.000  0.000  0.000  0.000  0.000
  0.000  0.000  0.679  0.000  0.321
    occupations:
  0.980  0.000  0.000  0.000  0.000
  0.000  0.997  0.000  0.000  0.000
  0.000  0.000  0.997  0.000  0.000
  0.000  0.000  0.000  0.980  0.000
  0.000  0.000  0.000  0.000  0.997
   spin  2
    eigenvalues: 
  0.382  0.384  0.995  0.995  0.995
    eigenvectors:
  1.000  0.000  0.000  0.000  0.000
  0.000  0.000  0.159  0.500  0.341
  0.000  0.000  0.159  0.500  0.341
  0.000  1.000  0.000  0.000  0.000
  0.000  0.000  0.682  0.000  0.318
    occupations:
  0.382  0.000  0.000  0.000  0.001
  0.000  0.995  0.000  0.001  0.000
  0.000  0.000  0.995 -0.001  0.000
  0.000  0.001 -0.001  0.384  0.000
  0.001  0.000  0.000  0.000  0.995
atomic mag. moment =     1.201062
atom    2   Tr[ns(na)] (up, down, total) =   4.95242  3.75136  8.70378
   spin  1
    eigenvalues: 
  0.980  0.980  0.997  0.997  0.997
    eigenvectors:
  0.750  0.250  0.000  0.000  0.000
  0.000  0.000  0.679  0.000  0.321
  0.000  0.000  0.161  0.500  0.339
  0.250  0.750  0.000  0.000  0.000
  0.000  0.000  0.161  0.500  0.339
    occupations:
  0.980  0.000  0.000  0.000  0.000
  0.000  0.997  0.000  0.000  0.000
  0.000  0.000  0.997  0.000  0.000
  0.000  0.000  0.000  0.980  0.000
  0.000  0.000  0.000  0.000  0.997
   spin  2
    eigenvalues: 
  0.382  0.384  0.995  0.995  0.995
    eigenvectors:
  0.250  0.750  0.000  0.000  0.000
  0.000  0.000  0.682  0.000  0.318
  0.000  0.000  0.159  0.500  0.341
  0.750  0.250  0.000  0.000  0.000
  0.000  0.000  0.159  0.500  0.341
    occupations:
  0.383  0.001  0.001 -0.001  0.001
  0.001  0.995  0.000  0.001  0.000
  0.001  0.000  0.995 -0.001  0.000
 -0.001  0.001 -0.001  0.382  0.000
  0.001  0.000  0.000  0.000  0.995
atomic mag. moment =     1.201062
atom    3   Tr[ns(na)] (up, down, total) =   4.95242  3.75136  8.70378
   spin  1
    eigenvalues: 
  0.980  0.980  0.997  0.997  0.997
    eigenvectors:
  0.750  0.250  0.000  0.000  0.000
  0.000  0.000  0.161  0.500  0.339
  0.000  0.000  0.679  0.000  0.321
  0.250  0.750  0.000  0.000  0.000
  0.000  0.000  0.161  0.500  0.339
    occupations:
  0.980  0.000  0.000  0.000  0.000
  0.000  0.997  0.000  0.000  0.000
  0.000  0.000  0.997  0.000  0.000
  0.000  0.000  0.000  0.980  0.000
  0.000  0.000  0.000  0.000  0.997
   spin  2
    eigenvalues: 
  0.382  0.384  0.995  0.995  0.995
    eigenvectors:
  0.250  0.750  0.000  0.000  0.000
  0.000  0.000  0.159  0.500  0.341
  0.000  0.000  0.682  0.000  0.318
  0.750  0.250  0.000  0.000  0.000
  0.000  0.000  0.159  0.500  0.341
    occupations:
  0.383  0.001  0.001  0.001  0.001
  0.001  0.995  0.000  0.001  0.000
  0.001  0.000  0.995 -0.001  0.000
  0.001  0.001 -0.001  0.382  0.000
  0.001  0.000  0.000  0.000  0.995
atomic mag. moment =     1.201062
atom    4   Tr[ns(na)] (up, down, total) =   4.95240  3.75356  8.70596
   spin  1
    eigenvalues: 
  0.980  0.980  0.997  0.997  0.997
    eigenvectors:
  0.159  0.841  0.000  0.000  0.000
  0.000  0.000  0.154  0.512  0.333
  0.000  0.000  0.179  0.487  0.333
  0.841  0.159  0.000  0.000  0.000
  0.000  0.000  0.666  0.000  0.333
    occupations:
  0.980  0.000  0.000  0.000  0.000
  0.000  0.997  0.000  0.000  0.000
  0.000  0.000  0.997  0.000  0.000
  0.000  0.000  0.000  0.980  0.000
  0.000  0.000  0.000  0.000  0.997
   spin  2
    eigenvalues: 
  0.384  0.384  0.995  0.995  0.995
    eigenvectors:
  0.115  0.885  0.000  0.000  0.000
  0.000  0.000  0.141  0.526  0.333
  0.000  0.000  0.194  0.473  0.333
  0.885  0.115  0.000  0.000  0.000
  0.000  0.000  0.665  0.001  0.333
    occupations:
  0.384  0.001  0.001  0.000  0.001
  0.001  0.995  0.000  0.001  0.000
  0.001  0.000  0.995 -0.001  0.000
  0.000  0.001 -0.001  0.384  0.000
  0.001  0.000  0.000  0.000  0.995
atomic mag. moment =     1.198847
atom    5   Tr[ns(na)] (up, down, total) =   3.75358  4.95241  8.70599
   spin  1
    eigenvalues: 
  0.384  0.384  0.995  0.995  0.995
    eigenvectors:
  0.105  0.895  0.000  0.000  0.000
  0.000  0.000  0.205  0.462  0.333
  0.000  0.000  0.131  0.535  0.333
  0.895  0.105  0.000  0.000  0.000
  0.000  0.000  0.664  0.003  0.333
    occupations:
  0.384  0.001  0.001  0.000  0.001
  0.001  0.995  0.000  0.001  0.000
  0.001  0.000  0.995 -0.001  0.000
  0.000  0.001 -0.001  0.384  0.000
  0.001  0.000  0.000  0.000  0.995
   spin  2
    eigenvalues: 
  0.980  0.980  0.997  0.997  0.997
    eigenvectors:
  0.218  0.782  0.000  0.000  0.000
  0.000  0.000  0.174  0.493  0.333
  0.000  0.000  0.159  0.507  0.333
  0.782  0.218  0.000  0.000  0.000
  0.000  0.000  0.667  0.000  0.333
    occupations:
  0.980  0.000  0.000  0.000  0.000
  0.000  0.997  0.000  0.000  0.000
  0.000  0.000  0.997  0.000  0.000
  0.000  0.000  0.000  0.980  0.000
  0.000  0.000  0.000  0.000  0.997
atomic mag. moment =    -1.198828
atom    6   Tr[ns(na)] (up, down, total) =   3.75135  4.95242  8.70376
   spin  1
    eigenvalues: 
  0.382  0.384  0.995  0.995  0.995
    eigenvectors:
  0.250  0.750  0.000  0.000  0.000
  0.000  0.000  0.158  0.500  0.342
  0.000  0.000  0.683  0.000  0.317
  0.750  0.250  0.000  0.000  0.000
  0.000  0.000  0.158  0.500  0.342
    occupations:
  0.383  0.001  0.001  0.001  0.001
  0.001  0.995  0.000  0.001  0.000
  0.001  0.000  0.995 -0.001  0.000
  0.001  0.001 -0.001  0.382  0.000
  0.001  0.000  0.000  0.000  0.995
   spin  2
    eigenvalues: 
  0.980  0.980  0.997  0.997  0.997
    eigenvectors:
  0.750  0.250  0.000  0.000  0.000
  0.000  0.000  0.161  0.500  0.339
  0.000  0.000  0.677  0.000  0.323
  0.250  0.750  0.000  0.000  0.000
  0.000  0.000  0.161  0.500  0.339
    occupations:
  0.980  0.000  0.000  0.000  0.000
  0.000  0.997  0.000  0.000  0.000
  0.000  0.000  0.997  0.000  0.000
  0.000  0.000  0.000  0.980  0.000
  0.000  0.000  0.000  0.000  0.997
atomic mag. moment =    -1.201071
atom    7   Tr[ns(na)] (up, down, total) =   3.75135  4.95242  8.70376
   spin  1
    eigenvalues: 
  0.382  0.384  0.995  0.995  0.995
    eigenvectors:
  0.250  0.750  0.000  0.000  0.000
  0.000  0.000  0.683  0.000  0.317
  0.000  0.000  0.158  0.500  0.342
  0.750  0.250  0.000  0.000  0.000
  0.000  0.000  0.158  0.500  0.342
    occupations:
  0.383  0.001  0.001 -0.001  0.001
  0.001  0.995  0.000  0.001  0.000
  0.001  0.000  0.995 -0.001  0.000
 -0.001  0.001 -0.001  0.382  0.000
  0.001  0.000  0.000  0.000  0.995
   spin  2
    eigenvalues: 
  0.980  0.980  0.997  0.997  0.997
    eigenvectors:
  0.750  0.250  0.000  0.000  0.000
  0.000  0.000  0.677  0.000  0.323
  0.000  0.000  0.161  0.500  0.339
  0.250  0.750  0.000  0.000  0.000
  0.000  0.000  0.161  0.500  0.339
    occupations:
  0.980  0.000  0.000  0.000  0.000
  0.000  0.997  0.000  0.000  0.000
  0.000  0.000  0.997  0.000  0.000
  0.000  0.000  0.000  0.980  0.000
  0.000  0.000  0.000  0.000  0.997
atomic mag. moment =    -1.201071
atom    8   Tr[ns(na)] (up, down, total) =   3.75135  4.95242  8.70376
   spin  1
    eigenvalues: 
  0.382  0.384  0.995  0.995  0.995
    eigenvectors:
  1.000  0.000  0.000  0.000  0.000
  0.000  0.000  0.158  0.500  0.342
  0.000  0.000  0.158  0.500  0.342
  0.000  1.000  0.000  0.000  0.000
  0.000  0.000  0.683  0.000  0.317
    occupations:
  0.382  0.000  0.000  0.000  0.001
  0.000  0.995  0.000  0.001  0.000
  0.000  0.000  0.995 -0.001  0.000
  0.000  0.001 -0.001  0.384  0.000
  0.001  0.000  0.000  0.000  0.995
   spin  2
    eigenvalues: 
  0.980  0.980  0.997  0.997  0.997
    eigenvectors:
  0.000  1.000  0.000  0.000  0.000
  0.000  0.000  0.161  0.500  0.339
  0.000  0.000  0.161  0.500  0.339
  1.000  0.000  0.000  0.000  0.000
  0.000  0.000  0.677  0.000  0.323
    occupations:
  0.980  0.000  0.000  0.000  0.000
  0.000  0.997  0.000  0.000  0.000
  0.000  0.000  0.997  0.000  0.000
  0.000  0.000  0.000  0.980  0.000
  0.000  0.000  0.000  0.000  0.997
atomic mag. moment =    -1.201071
atom    9   Tr[ns(na)] (up, down, total) =   2.81767  2.81767  5.63534
   spin  1
    eigenvalues: 
  0.939  0.939  0.940
    eigenvectors:
  0.379  0.287  0.333
  0.596  0.070  0.333
  0.024  0.642  0.333
    occupations:
  0.939  0.000  0.000
  0.000  0.939  0.000
  0.000  0.000  0.939
   spin  2
    eigenvalues: 
  0.939  0.939  0.940
    eigenvectors:
  0.324  0.343  0.333
  0.627  0.040  0.333
  0.049  0.617  0.333
    occupations:
  0.939  0.000  0.000
  0.000  0.939  0.000
  0.000  0.000  0.939
atomic mag. moment =     0.000002
atom   10   Tr[ns(na)] (up, down, total) =   2.81113  2.81113  5.62225
   spin  1
    eigenvalues: 
  0.937  0.937  0.938
    eigenvectors:
  0.000  0.679  0.321
  0.500  0.161  0.339
  0.500  0.161  0.339
    occupations:
  0.937  0.000  0.000
  0.000  0.937  0.001
  0.000  0.001  0.937
   spin  2
    eigenvalues: 
  0.937  0.937  0.938
    eigenvectors:
  0.000  0.678  0.322
  0.500  0.161  0.339
  0.500  0.161  0.339
    occupations:
  0.937  0.000  0.000
  0.000  0.937  0.001
  0.000  0.001  0.937
atomic mag. moment =     0.000000
atom   11   Tr[ns(na)] (up, down, total) =   2.81113  2.81113  5.62225
   spin  1
    eigenvalues: 
  0.937  0.937  0.938
    eigenvectors:
  0.500  0.161  0.339
  0.000  0.679  0.321
  0.500  0.161  0.339
    occupations:
  0.937  0.000 -0.001
  0.000  0.937  0.000
 -0.001  0.000  0.937
   spin  2
    eigenvalues: 
  0.937  0.937  0.938
    eigenvectors:
  0.500  0.161  0.339
  0.000  0.678  0.322
  0.500  0.161  0.339
    occupations:
  0.937  0.000 -0.001
  0.000  0.937  0.000
 -0.001  0.000  0.937
atomic mag. moment =     0.000000
atom   12   Tr[ns(na)] (up, down, total) =   2.81113  2.81113  5.62225
   spin  1
    eigenvalues: 
  0.937  0.937  0.938
    eigenvectors:
  0.500  0.161  0.339
  0.500  0.161  0.339
  0.000  0.679  0.321
    occupations:
  0.937 -0.001  0.000
 -0.001  0.937  0.000
  0.000  0.000  0.937
   spin  2
    eigenvalues: 
  0.937  0.937  0.938
    eigenvectors:
  0.500  0.161  0.339
  0.500  0.161  0.339
  0.000  0.678  0.322
    occupations:
  0.937 -0.001  0.000
 -0.001  0.937  0.000
  0.000  0.000  0.937
atomic mag. moment =     0.000000
atom   13   Tr[ns(na)] (up, down, total) =   2.81115  2.81115  5.62231
   spin  1
    eigenvalues: 
  0.937  0.937  0.938
    eigenvectors:
  0.171  0.500  0.329
  0.657  0.000  0.343
  0.171  0.500  0.329
    occupations:
  0.937  0.000  0.000
  0.000  0.937  0.000
  0.000  0.000  0.937
   spin  2
    eigenvalues: 
  0.937  0.937  0.938
    eigenvectors:
  0.172  0.500  0.328
  0.657  0.000  0.343
  0.172  0.500  0.328
    occupations:
  0.937  0.000  0.000
  0.000  0.937  0.000
  0.000  0.000  0.937
atomic mag. moment =     0.000000
atom   14   Tr[ns(na)] (up, down, total) =   2.81115  2.81115  5.62231
   spin  1
    eigenvalues: 
  0.937  0.937  0.938
    eigenvectors:
  0.171  0.500  0.329
  0.171  0.500  0.329
  0.657  0.000  0.343
    occupations:
  0.937  0.000  0.000
  0.000  0.937  0.000
  0.000  0.000  0.937
   spin  2
    eigenvalues: 
  0.937  0.937  0.938
    eigenvectors:
  0.172  0.500  0.328
  0.172  0.500  0.328
  0.657  0.000  0.343
    occupations:
  0.937  0.000  0.000
  0.000  0.937  0.000
  0.000  0.000  0.937
atomic mag. moment =     0.000000
atom   15   Tr[ns(na)] (up, down, total) =   2.81115  2.81115  5.62231
   spin  1
    eigenvalues: 
  0.937  0.937  0.938
    eigenvectors:
  0.657  0.000  0.343
  0.171  0.500  0.329
  0.171  0.500  0.329
    occupations:
  0.937  0.000  0.000
  0.000  0.937  0.000
  0.000  0.000  0.937
   spin  2
    eigenvalues: 
  0.937  0.937  0.938
    eigenvectors:
  0.657  0.000  0.343
  0.172  0.500  0.328
  0.172  0.500  0.328
    occupations:
  0.937  0.000  0.000
  0.000  0.937  0.000
  0.000  0.000  0.937
atomic mag. moment =     0.000000
atom   16   Tr[ns(na)] (up, down, total) =   2.81058  2.81058  5.62117
   spin  1
    eigenvalues: 
  0.936  0.936  0.938
    eigenvectors:
  0.500  0.167  0.333
  0.500  0.167  0.333
  0.000  0.667  0.333
    occupations:
  0.937  0.000  0.000
  0.000  0.937  0.000
  0.000  0.000  0.937
   spin  2
    eigenvalues: 
  0.936  0.936  0.938
    eigenvectors:
  0.459  0.208  0.333
  0.538  0.128  0.333
  0.003  0.663  0.333
    occupations:
  0.937  0.000  0.000
  0.000  0.937  0.000
  0.000  0.000  0.937
atomic mag. moment =     0.000002
N of occupied +U levels = 114.6247718
 --- exit write_ns ---

     total cpu time spent up to now is       83.0 secs

     total energy              =    -942.07805282 Ry
     Harris-Foulkes estimate   =    -942.07815817 Ry
     estimated scf accuracy    <       0.00023235 Ry

     total magnetization       =     0.00 Bohr mag/cell
     absolute magnetization    =    12.30 Bohr mag/cell

     iteration #  2     ecut=    30.00 Ry     beta=0.30
     Davidson diagonalization with overlap
     ethr =  1.82E-07,  avg # of iterations =  2.0

     total cpu time spent up to now is      120.6 secs

     total energy              =    -942.07810682 Ry
     Harris-Foulkes estimate   =    -942.07812330 Ry
     estimated scf accuracy    <       0.00004909 Ry

     total magnetization       =     0.00 Bohr mag/cell
     absolute magnetization    =    12.29 Bohr mag/cell

     iteration #  3     ecut=    30.00 Ry     beta=0.30
     Davidson diagonalization with overlap
     ethr =  3.84E-08,  avg # of iterations =  2.0

     total cpu time spent up to now is      157.4 secs

     total energy              =    -942.07811435 Ry
     Harris-Foulkes estimate   =    -942.07811449 Ry
     estimated scf accuracy    <       0.00000087 Ry

     total magnetization       =     0.00 Bohr mag/cell
     absolute magnetization    =    12.29 Bohr mag/cell

     iteration #  4     ecut=    30.00 Ry     beta=0.30
     Davidson diagonalization with overlap
     ethr =  6.83E-10,  avg # of iterations =  2.0

     total cpu time spent up to now is      194.0 secs

     total energy              =    -942.07811443 Ry
     Harris-Foulkes estimate   =    -942.07811445 Ry
     estimated scf accuracy    <       0.00000033 Ry

     total magnetization       =     0.00 Bohr mag/cell
     absolute magnetization    =    12.29 Bohr mag/cell

     iteration #  5     ecut=    30.00 Ry     beta=0.30
     Davidson diagonalization with overlap
     ethr =  2.57E-10,  avg # of iterations =  1.4

     total cpu time spent up to now is      229.5 secs

     total energy              =    -942.07811446 Ry
     Harris-Foulkes estimate   =    -942.07811446 Ry
     estimated scf accuracy    <       0.00000005 Ry

     total magnetization       =     0.00 Bohr mag/cell
     absolute magnetization    =    12.29 Bohr mag/cell

     iteration #  6     ecut=    30.00 Ry     beta=0.30
     Davidson diagonalization with overlap
     ethr =  3.78E-11,  avg # of iterations =  1.9

     total cpu time spent up to now is      265.7 secs

     total energy              =    -942.07811447 Ry
     Harris-Foulkes estimate   =    -942.07811447 Ry
     estimated scf accuracy    <       0.00000002 Ry

     total magnetization       =     0.00 Bohr mag/cell
     absolute magnetization    =    12.29 Bohr mag/cell

     iteration #  7     ecut=    30.00 Ry     beta=0.30
     Davidson diagonalization with overlap
     ethr =  1.90E-11,  avg # of iterations =  1.4

     total cpu time spent up to now is      300.9 secs

     End of self-consistent calculation
 --- enter write_ns ---
 LDA+U parameters:
U( 1)     =  0.00000000
alpha( 1) =  0.00000000
U( 2)     =  0.00000000
alpha( 2) =  0.00000000
U( 3)     =  0.00000000
alpha( 3) = -0.15000000
U( 4)     =  0.00000000
alpha( 4) =  0.00000000
atom    1   Tr[ns(na)] (up, down, total) =   4.95243  3.75255  8.70498
   spin  1
    eigenvalues: 
  0.980  0.980  0.997  0.997  0.997
    eigenvectors:
  0.000  1.000  0.000  0.000  0.000
  0.000  0.000  0.500  0.192  0.308
  0.000  0.000  0.500  0.192  0.308
  1.000  0.000  0.000  0.000  0.000
  0.000  0.000  0.000  0.616  0.384
    occupations:
  0.980  0.000  0.000  0.000  0.000
  0.000  0.997  0.000  0.000  0.000
  0.000  0.000  0.997  0.000  0.000
  0.000  0.000  0.000  0.980  0.000
  0.000  0.000  0.000  0.000  0.997
   spin  2
    eigenvalues: 
  0.383  0.384  0.995  0.995  0.995
    eigenvectors:
  1.000  0.000  0.000  0.000  0.000
  0.000  0.000  0.500  0.168  0.332
  0.000  0.000  0.500  0.168  0.332
  0.000  1.000  0.000  0.000  0.000
  0.000  0.000  0.000  0.665  0.335
    occupations:
  0.383  0.001  0.001  0.000  0.001
  0.001  0.995  0.000  0.001  0.000
  0.001  0.000  0.995 -0.001  0.000
  0.000  0.001 -0.001  0.384  0.000
  0.001  0.000  0.000  0.000  0.995
atomic mag. moment =     1.199884
atom    2   Tr[ns(na)] (up, down, total) =   4.95243  3.75255  8.70498
   spin  1
    eigenvalues: 
  0.980  0.980  0.997  0.997  0.997
    eigenvectors:
  0.750  0.250  0.000  0.000  0.000
  0.000  0.000  0.000  0.616  0.384
  0.000  0.000  0.500  0.192  0.308
  0.250  0.750  0.000  0.000  0.000
  0.000  0.000  0.500  0.192  0.308
    occupations:
  0.980  0.000  0.000  0.000  0.000
  0.000  0.997  0.000  0.000  0.000
  0.000  0.000  0.997  0.000  0.000
  0.000  0.000  0.000  0.980  0.000
  0.000  0.000  0.000  0.000  0.997
   spin  2
    eigenvalues: 
  0.383  0.384  0.995  0.995  0.995
    eigenvectors:
  0.250  0.750  0.000  0.000  0.000
  0.000  0.000  0.000  0.665  0.335
  0.000  0.000  0.500  0.168  0.332
  0.750  0.250  0.000  0.000  0.000
  0.000  0.000  0.500  0.168  0.332
    occupations:
  0.384  0.001  0.001  0.000  0.001
  0.001  0.995  0.000  0.001  0.000
  0.001  0.000  0.995 -0.001  0.000
  0.000  0.001 -0.001  0.383  0.000
  0.001  0.000  0.000  0.000  0.995
atomic mag. moment =     1.199884
atom    3   Tr[ns(na)] (up, down, total) =   4.95243  3.75255  8.70498
   spin  1
    eigenvalues: 
  0.980  0.980  0.997  0.997  0.997
    eigenvectors:
  0.750  0.250  0.000  0.000  0.000
  0.000  0.000  0.500  0.192  0.308
  0.000  0.000  0.000  0.616  0.384
  0.250  0.750  0.000  0.000  0.000
  0.000  0.000  0.500  0.192  0.308
    occupations:
  0.980  0.000  0.000  0.000  0.000
  0.000  0.997  0.000  0.000  0.000
  0.000  0.000  0.997  0.000  0.000
  0.000  0.000  0.000  0.980  0.000
  0.000  0.000  0.000  0.000  0.997
   spin  2
    eigenvalues: 
  0.383  0.384  0.995  0.995  0.995
    eigenvectors:
  0.250  0.750  0.000  0.000  0.000
  0.000  0.000  0.500  0.168  0.332
  0.000  0.000  0.000  0.665  0.335
  0.750  0.250  0.000  0.000  0.000
  0.000  0.000  0.500  0.168  0.332
    occupations:
  0.384  0.001  0.001  0.000  0.001
  0.001  0.995  0.000  0.001  0.000
  0.001  0.000  0.995 -0.001  0.000
  0.000  0.001 -0.001  0.383  0.000
  0.001  0.000  0.000  0.000  0.995
atomic mag. moment =     1.199884
atom    4   Tr[ns(na)] (up, down, total) =   4.95241  3.75361  8.70601
   spin  1
    eigenvalues: 
  0.980  0.980  0.997  0.997  0.997
    eigenvectors:
  0.156  0.844  0.000  0.000  0.000
  0.000  0.000  0.087  0.579  0.333
  0.000  0.000  0.651  0.016  0.333
  0.844  0.156  0.000  0.000  0.000
  0.000  0.000  0.261  0.405  0.333
    occupations:
  0.980  0.000  0.000  0.000  0.000
  0.000  0.997  0.000  0.000  0.000
  0.000  0.000  0.997  0.000  0.000
  0.000  0.000  0.000  0.980  0.000
  0.000  0.000  0.000  0.000  0.997
   spin  2
    eigenvalues: 
  0.384  0.384  0.995  0.995  0.995
    eigenvectors:
  0.238  0.762  0.000  0.000  0.000
  0.000  0.000  0.147  0.519  0.333
  0.000  0.000  0.187  0.480  0.333
  0.762  0.238  0.000  0.000  0.000
  0.000  0.000  0.666  0.001  0.333
    occupations:
  0.384  0.001  0.001  0.000  0.001
  0.001  0.995  0.000  0.001  0.000
  0.001  0.000  0.995 -0.001  0.000
  0.000  0.001 -0.001  0.384  0.000
  0.001  0.000  0.000  0.000  0.995
atomic mag. moment =     1.198796
atom    5   Tr[ns(na)] (up, down, total) =   3.75364  4.95241  8.70606
   spin  1
    eigenvalues: 
  0.384  0.384  0.995  0.995  0.995
    eigenvectors:
  0.125  0.875  0.000  0.000  0.000
  0.000  0.000  0.103  0.563  0.333
  0.000  0.000  0.239  0.427  0.333
  0.875  0.125  0.000  0.000  0.000
  0.000  0.000  0.657  0.009  0.333
    occupations:
  0.384  0.001  0.001  0.000  0.001
  0.001  0.995  0.000  0.001  0.000
  0.001  0.000  0.995 -0.001  0.000
  0.000  0.001 -0.001  0.384  0.000
  0.001  0.000  0.000  0.000  0.995
   spin  2
    eigenvalues: 
  0.980  0.980  0.997  0.997  0.997
    eigenvectors:
  0.169  0.831  0.000  0.000  0.000
  0.000  0.000  0.147  0.520  0.333
  0.000  0.000  0.187  0.479  0.333
  0.831  0.169  0.000  0.000  0.000
  0.000  0.000  0.666  0.001  0.333
    occupations:
  0.980  0.000  0.000  0.000  0.000
  0.000  0.997  0.000  0.000  0.000
  0.000  0.000  0.997  0.000  0.000
  0.000  0.000  0.000  0.980  0.000
  0.000  0.000  0.000  0.000  0.997
atomic mag. moment =    -1.198767
atom    6   Tr[ns(na)] (up, down, total) =   3.75253  4.95243  8.70496
   spin  1
    eigenvalues: 
  0.383  0.384  0.995  0.995  0.995
    eigenvectors:
  0.250  0.750  0.000  0.000  0.000
  0.000  0.000  0.500  0.167  0.333
  0.000  0.000  0.000  0.666  0.334
  0.750  0.250  0.000  0.000  0.000
  0.000  0.000  0.500  0.167  0.333
    occupations:
  0.384  0.001  0.001  0.000  0.001
  0.001  0.995  0.000  0.001  0.000
  0.001  0.000  0.995 -0.001  0.000
  0.000  0.001 -0.001  0.383  0.000
  0.001  0.000  0.000  0.000  0.995
   spin  2
    eigenvalues: 
  0.980  0.980  0.997  0.997  0.997
    eigenvectors:
  0.750  0.250  0.000  0.000  0.000
  0.000  0.000  0.500  0.193  0.307
  0.000  0.000  0.000  0.613  0.387
  0.250  0.750  0.000  0.000  0.000
  0.000  0.000  0.500  0.193  0.307
    occupations:
  0.980  0.000  0.000  0.000  0.000
  0.000  0.997  0.000  0.000  0.000
  0.000  0.000  0.997  0.000  0.000
  0.000  0.000  0.000  0.980  0.000
  0.000  0.000  0.000  0.000  0.997
atomic mag. moment =    -1.199896
atom    7   Tr[ns(na)] (up, down, total) =   3.75253  4.95243  8.70496
   spin  1
    eigenvalues: 
  0.383  0.384  0.995  0.995  0.995
    eigenvectors:
  0.250  0.750  0.000  0.000  0.000
  0.000  0.000  0.000  0.666  0.334
  0.000  0.000  0.500  0.167  0.333
  0.750  0.250  0.000  0.000  0.000
  0.000  0.000  0.500  0.167  0.333
    occupations:
  0.384  0.001  0.001  0.000  0.001
  0.001  0.995  0.000  0.001  0.000
  0.001  0.000  0.995 -0.001  0.000
  0.000  0.001 -0.001  0.383  0.000
  0.001  0.000  0.000  0.000  0.995
   spin  2
    eigenvalues: 
  0.980  0.980  0.997  0.997  0.997
    eigenvectors:
  0.750  0.250  0.000  0.000  0.000
  0.000  0.000  0.000  0.613  0.387
  0.000  0.000  0.500  0.193  0.307
  0.250  0.750  0.000  0.000  0.000
  0.000  0.000  0.500  0.193  0.307
    occupations:
  0.980  0.000  0.000  0.000  0.000
  0.000  0.997  0.000  0.000  0.000
  0.000  0.000  0.997  0.000  0.000
  0.000  0.000  0.000  0.980  0.000
  0.000  0.000  0.000  0.000  0.997
atomic mag. moment =    -1.199896
atom    8   Tr[ns(na)] (up, down, total) =   3.75253  4.95243  8.70496
   spin  1
    eigenvalues: 
  0.383  0.384  0.995  0.995  0.995
    eigenvectors:
  1.000  0.000  0.000  0.000  0.000
  0.000  0.000  0.500  0.167  0.333
  0.000  0.000  0.500  0.167  0.333
  0.000  1.000  0.000  0.000  0.000
  0.000  0.000  0.000  0.666  0.334
    occupations:
  0.383  0.001  0.001  0.000  0.001
  0.001  0.995  0.000  0.001  0.000
  0.001  0.000  0.995 -0.001  0.000
  0.000  0.001 -0.001  0.384  0.000
  0.001  0.000  0.000  0.000  0.995
   spin  2
    eigenvalues: 
  0.980  0.980  0.997  0.997  0.997
    eigenvectors:
  0.000  1.000  0.000  0.000  0.000
  0.000  0.000  0.500  0.193  0.307
  0.000  0.000  0.500  0.193  0.307
  1.000  0.000  0.000  0.000  0.000
  0.000  0.000  0.000  0.613  0.387
    occupations:
  0.980  0.000  0.000  0.000  0.000
  0.000  0.997  0.000  0.000  0.000
  0.000  0.000  0.997  0.000  0.000
  0.000  0.000  0.000  0.980  0.000
  0.000  0.000  0.000  0.000  0.997
atomic mag. moment =    -1.199896
atom    9   Tr[ns(na)] (up, down, total) =   2.81376  2.81376  5.62752
   spin  1
    eigenvalues: 
  0.937  0.937  0.939
    eigenvectors:
  0.385  0.282  0.333
  0.593  0.074  0.333
  0.022  0.644  0.333
    occupations:
  0.938  0.000  0.000
  0.000  0.938  0.000
  0.000  0.000  0.938
   spin  2
    eigenvalues: 
  0.937  0.937  0.939
    eigenvectors:
  0.372  0.295  0.333
  0.601  0.066  0.333
  0.027  0.639  0.333
    occupations:
  0.938  0.000  0.000
  0.000  0.938  0.000
  0.000  0.000  0.938
atomic mag. moment =     0.000003
atom   10   Tr[ns(na)] (up, down, total) =   2.81112  2.81112  5.62223
   spin  1
    eigenvalues: 
  0.937  0.937  0.938
    eigenvectors:
  0.000  0.671  0.329
  0.500  0.165  0.335
  0.500  0.165  0.335
    occupations:
  0.937  0.000  0.000
  0.000  0.937  0.000
  0.000  0.000  0.937
   spin  2
    eigenvalues: 
  0.937  0.937  0.938
    eigenvectors:
  0.000  0.670  0.330
  0.500  0.165  0.335
  0.500  0.165  0.335
    occupations:
  0.937  0.000  0.000
  0.000  0.937  0.000
  0.000  0.000  0.937
atomic mag. moment =     0.000000
atom   11   Tr[ns(na)] (up, down, total) =   2.81112  2.81112  5.62223
   spin  1
    eigenvalues: 
  0.937  0.937  0.938
    eigenvectors:
  0.500  0.165  0.335
  0.000  0.671  0.329
  0.500  0.165  0.335
    occupations:
  0.937  0.000  0.000
  0.000  0.937  0.000
  0.000  0.000  0.937
   spin  2
    eigenvalues: 
  0.937  0.937  0.938
    eigenvectors:
  0.500  0.165  0.335
  0.000  0.670  0.330
  0.500  0.165  0.335
    occupations:
  0.937  0.000  0.000
  0.000  0.937  0.000
  0.000  0.000  0.937
atomic mag. moment =     0.000000
atom   12   Tr[ns(na)] (up, down, total) =   2.81112  2.81112  5.62223
   spin  1
    eigenvalues: 
  0.937  0.937  0.938
    eigenvectors:
  0.500  0.165  0.335
  0.500  0.165  0.335
  0.000  0.671  0.329
    occupations:
  0.937  0.000  0.000
  0.000  0.937  0.000
  0.000  0.000  0.937
   spin  2
    eigenvalues: 
  0.937  0.937  0.938
    eigenvectors:
  0.500  0.165  0.335
  0.500  0.165  0.335
  0.000  0.670  0.330
    occupations:
  0.937  0.000  0.000
  0.000  0.937  0.000
  0.000  0.000  0.937
atomic mag. moment =     0.000000
atom   13   Tr[ns(na)] (up, down, total) =   2.81112  2.81112  5.62223
   spin  1
    eigenvalues: 
  0.937  0.937  0.938
    eigenvectors:
  0.170  0.500  0.330
  0.660  0.000  0.340
  0.170  0.500  0.330
    occupations:
  0.937  0.000  0.000
  0.000  0.937  0.000
  0.000  0.000  0.937
   spin  2
    eigenvalues: 
  0.937  0.937  0.938
    eigenvectors:
  0.170  0.500  0.330
  0.659  0.000  0.341
  0.170  0.500  0.330
    occupations:
  0.937  0.000  0.000
  0.000  0.937  0.000
  0.000  0.000  0.937
atomic mag. moment =     0.000000
atom   14   Tr[ns(na)] (up, down, total) =   2.81112  2.81112  5.62223
   spin  1
    eigenvalues: 
  0.937  0.937  0.938
    eigenvectors:
  0.170  0.500  0.330
  0.170  0.500  0.330
  0.660  0.000  0.340
    occupations:
  0.937  0.000  0.000
  0.000  0.937  0.000
  0.000  0.000  0.937
   spin  2
    eigenvalues: 
  0.937  0.937  0.938
    eigenvectors:
  0.170  0.500  0.330
  0.170  0.500  0.330
  0.659  0.000  0.341
    occupations:
  0.937  0.000  0.000
  0.000  0.937  0.000
  0.000  0.000  0.937
atomic mag. moment =     0.000000
atom   15   Tr[ns(na)] (up, down, total) =   2.81112  2.81112  5.62223
   spin  1
    eigenvalues: 
  0.937  0.937  0.938
    eigenvectors:
  0.660  0.000  0.340
  0.170  0.500  0.330
  0.170  0.500  0.330
    occupations:
  0.937  0.000  0.000
  0.000  0.937  0.000
  0.000  0.000  0.937
   spin  2
    eigenvalues: 
  0.937  0.937  0.938
    eigenvectors:
  0.659  0.000  0.341
  0.170  0.500  0.330
  0.170  0.500  0.330
    occupations:
  0.937  0.000  0.000
  0.000  0.937  0.000
  0.000  0.000  0.937
atomic mag. moment =     0.000000
atom   16   Tr[ns(na)] (up, down, total) =   2.81118  2.81117  5.62235
   spin  1
    eigenvalues: 
  0.937  0.937  0.938
    eigenvectors:
  0.415  0.252  0.333
  0.572  0.094  0.333
  0.013  0.654  0.333
    occupations:
  0.937  0.000  0.000
  0.000  0.937  0.000
  0.000  0.000  0.937
   spin  2
    eigenvalues: 
  0.937  0.937  0.938
    eigenvectors:
  0.359  0.308  0.333
  0.608  0.058  0.333
  0.033  0.634  0.333
    occupations:
  0.937  0.000  0.000
  0.000  0.937  0.000
  0.000  0.000  0.937
atomic mag. moment =     0.000003
N of occupied +U levels = 114.6251383
 --- exit write_ns ---

 ------ SPIN UP ------------


          k = 0.0000 0.0000 0.0000 (  2733 PWs)   bands (ev):

    -8.0745  -6.6891  -6.6888  -6.6888  -6.6718  -6.6204  -6.6204  -6.5916
     4.0024   4.0024   4.0060   4.0276   5.3096   5.3096   5.3096   6.5017
     6.5017   6.5244   6.5244   6.5288   6.5365   6.5594   6.5594   7.9295
     7.9295   7.9327   7.9511   7.9543   7.9543   8.8282   8.8282   8.8282
     9.2444   9.2444   9.2516   9.5549   9.5549   9.6905   9.8719   9.8719
     9.9386   9.9386   9.9388  10.2240  10.2244  10.2244  10.4811  10.4811
    10.4811  10.5952  10.5952  10.5953  10.9077  10.9077  11.0345  11.0360
    11.0360  11.1753  11.2595  11.2602  11.2602  11.3790  11.3790  11.3799
    13.5413  13.5413  13.6005  13.6005  13.6007  13.6844  13.6851  13.6851
    13.7612  17.7973  17.7993  17.7993  17.8039

          k =-0.1250 0.1250 0.1250 (  2743 PWs)   bands (ev):

    -7.8994  -6.9230  -6.6828  -6.6827  -6.6713  -6.6340  -6.6338  -6.6049
     4.3206   4.3236   4.3420   4.5855   5.3229   5.3241   5.3308   6.4085
     6.4328   6.4363   6.6164   6.6544   6.6656   6.6844   6.7270   7.1731
     7.1889   7.2234   7.6688   7.6745   7.6910   7.9547   8.3891   8.3971
     9.2755   9.3318   9.3330   9.6729   9.8190   9.9558  10.0370  10.0376
    10.1055  10.2142  10.2143  10.2434  10.3670  10.5139  10.5346  10.5365
    10.5457  10.6306  10.6817  10.6830  10.8927  10.9883  11.1097  11.1111
    11.1132  11.1738  11.2544  11.2548  11.2760  11.3096  11.3380  11.3390
    13.2089  13.2753  13.2753  13.2889  13.3790  13.4170  13.4170  13.4612
    14.7679  17.5949  18.6770  18.6782  18.6810

          k = 0.2500-0.2500-0.2500 (  2764 PWs)   bands (ev):

    -7.4498  -7.4348  -6.6661  -6.6657  -6.6629  -6.6601  -6.6578  -6.6193
     5.0111   5.0145   5.0514   5.0594   5.0618   5.0682   6.0593   6.0902
     6.2948   6.3202   6.3699   6.3841   6.4463   6.4599   6.8342   6.8513
     6.9938   7.0073   7.2946   7.3037   7.4695   7.4795   7.6165   7.6333
     9.6280   9.6288   9.8129   9.8130   9.8823   9.8838  10.0180  10.0185
    10.1538  10.1554  10.2166  10.2171  10.5268  10.5293  10.6360  10.6388
    10.6545  10.6559  10.8638  10.8653  10.9571  10.9590  11.2382  11.2401
    11.2468  11.2488  11.2918  11.2935  11.3250  11.3264  11.4255  11.4288
    13.0342  13.0348  13.0409  13.0413  13.0493  13.0494  13.0594  13.0598
    16.4823  16.4855  19.6532  19.6532  19.7124

          k = 0.0000 0.0000 0.2500 (  2706 PWs)   bands (ev):

    -7.8463  -6.8050  -6.7539  -6.7539  -6.7533  -6.7274  -6.5670  -6.5509
     4.4617   4.4645   4.4744   4.4893   5.2134   5.5015   5.5015   6.5019
     6.5194   6.5387   6.5666   6.5848   6.5979   6.6165   6.6672   7.0472
     7.0476   7.1442   7.1630   7.4488   7.9564   7.9615   8.6389   8.6480
     8.9507   9.5288   9.6220   9.6220   9.8075   9.9733  10.0503  10.0508
    10.0895  10.1059  10.1790  10.2729  10.2729  10.3908  10.4040  10.5381
    10.5399  10.6073  10.6078  10.6527  10.9062  11.0025  11.0036  11.0443
    11.0506  11.1640  11.2367  11.2884  11.2894  11.3413  11.3426  11.3736
    12.8731  13.0341  13.0345  13.0378  13.5186  13.5619  13.6393  13.6401
    15.2144  18.5668  18.5681  18.5682  18.5715

          k = 0.3750-0.3750-0.1250 (  2734 PWs)   bands (ev):

    -7.4972  -7.1664  -6.9613  -6.7711  -6.7582  -6.5910  -6.5557  -6.5384
     4.9363   4.9443   4.9663   5.2868   5.4052   5.4795   5.5028   6.1516
     6.1949   6.2211   6.2518   6.5668   6.5850   6.7272   6.7366   6.8438
     6.8763   6.9088   6.9801   7.3430   7.3621   7.7075   7.7455   8.0019
     9.4504   9.6454   9.8161   9.8884   9.9496   9.9622  10.0304  10.1320
    10.1346  10.1621  10.2043  10.2816  10.3089  10.3156  10.4712  10.5049
    10.7252  10.7312  10.7356  10.7467  10.8714  10.9002  11.0340  11.0717
    11.1613  11.1890  11.2193  11.2512  11.3255  11.3296  11.3476  11.4040
    12.7339  12.7779  12.8295  12.9260  13.2304  13.2535  13.3592  13.4280
    16.6953  17.6032  18.6714  19.3635  19.3652

          k = 0.2500-0.2500 0.0000 (  2742 PWs)   bands (ev):

    -7.6349  -7.0172  -7.0051  -6.7202  -6.7085  -6.6023  -6.5897  -6.5361
     4.7467   4.7582   5.0448   5.0513   5.2369   5.2512   5.6818   5.9464
     6.2650   6.2919   6.5122   6.7036   6.7288   6.7351   6.8914   6.9075
     6.9168   7.1354   7.1544   7.1744   7.4287   7.4444   7.6188   8.1115
     9.6513   9.6529   9.7841   9.8433   9.8990   9.9004  10.0381  10.1056
    10.1267  10.2205  10.2224  10.2238  10.2239  10.3550  10.3559  10.5095
    10.7121  10.7441  10.7451  10.8208  10.8976  11.0889  11.0903  11.1086
    11.2025  11.2038  11.2262  11.2374  11.2718  11.3391  11.3988  11.4000
    13.0374  13.0416  13.0523  13.0528  13.1090  13.1465  13.1470  13.2786
    16.0086  18.0619  18.0628  19.3780  19.3791

          k = 0.0000 0.0000-0.5000 (  2762 PWs)   bands (ev):

    -7.3122  -7.2989  -6.8171  -6.8169  -6.8160  -6.7910  -6.5128  -6.4979
     4.9865   4.9927   5.0149   5.0227   5.7386   5.7642   6.0695   6.0754
     6.0959   6.1019   6.3764   6.3990   6.6300   6.6470   6.6619   6.6793
     6.6825   6.7192   6.7223   6.7254   8.1276   8.1386   8.1453   8.1564
     9.2443   9.2451   9.9435   9.9447  10.0242  10.0245  10.0399  10.0401
    10.0408  10.0444  10.1638  10.1641  10.3435  10.3441  10.4895  10.4912
    10.5111  10.5144  10.5754  10.5760  10.9066  10.9068  10.9988  11.0004
    11.1424  11.1431  11.2201  11.2218  11.3303  11.3316  11.3347  11.3355
    12.4575  12.4582  12.7153  12.7156  13.5121  13.5132  13.6123  13.6131
    17.6676  17.6681  19.2528  19.2532  19.2541

          k = 0.0000 0.2500-0.5000 (  2740 PWs)   bands (ev):

    -7.1533  -7.1525  -7.1522  -7.1256  -6.5804  -6.5779  -6.5749  -6.5476
     5.2464   5.2660   5.2714   5.3122   5.3626   5.5247   5.5261   5.6365
     6.2034   6.2327   6.2424   6.2736   6.6039   6.6086   6.6199   6.7473
     6.8884   7.2482   7.2611   7.4470   7.4652   7.4926   7.4939   7.5455
     9.7058   9.7326   9.7332   9.8005   9.9804  10.0302  10.0324  10.0638
    10.1119  10.2656  10.2817  10.2832  10.3383  10.3394  10.3928  10.4582
    10.6089  10.6565  10.6571  10.6837  10.9413  10.9426  10.9631  10.9846
    11.1675  11.1788  11.1806  11.2741  11.2894  11.2934  11.3598  11.3606
    12.7696  12.8843  12.8846  12.9980  13.1495  13.1935  13.1943  13.2388
    18.0183  18.0359  18.0389  18.0580  20.8595

          k = 0.1250 0.1250 0.1250 (  2743 PWs)   bands (ev):

    -7.8994  -6.9233  -6.6836  -6.6836  -6.6719  -6.6330  -6.6330  -6.6042
     4.3198   4.3198   4.3394   4.5905   5.3218   5.3218   5.3287   6.4488
     6.4730   6.4730   6.6037   6.6037   6.6179   6.6853   6.6853   7.1847
     7.2060   7.2060   7.6866   7.6866   7.7022   7.9609   8.4410   8.4410
     9.2563   9.2573   9.2573   9.6134   9.6134   9.9965  10.0599  10.0600
    10.0600  10.2704  10.2715  10.2715  10.5976  10.5976  10.5982  10.6162
    10.6162  10.7173  10.7173  10.7189  10.9091  10.9091  10.9336  10.9364
    10.9364  11.0286  11.2518  11.2525  11.2525  11.3893  11.3893  11.3903
    13.3295  13.3295  13.3459  13.3459  13.3459  13.3536  13.3537  13.3537
    14.7682  17.5964  18.6752  18.6752  18.6784

          k =-0.2500-0.2500-0.2500 (  2764 PWs)   bands (ev):

    -7.4512  -7.4337  -6.6721  -6.6721  -6.6664  -6.6518  -6.6518  -6.6173
     4.9798   4.9798   5.0075   5.0899   5.0899   5.1090   6.0545   6.1042
     6.2282   6.2564   6.2564   6.6564   6.6872   6.6872   6.7326   6.7326
     6.7459   6.9687   6.9687   7.4285   7.4285   7.4434   7.8518   7.8518
     9.4861   9.4861   9.4863   9.6693   9.6693  10.1113  10.1156  10.1161
    10.1161  10.4445  10.4452  10.4452  10.5018  10.5018  10.5022  10.7224
    10.7224  10.8338  10.8387  10.8387  10.8667  11.0490  11.0490  11.0522
    11.2400  11.2408  11.2408  11.2933  11.2933  11.3971  11.3971  11.3981
    13.0357  13.0359  13.0359  13.0521  13.0521  13.0675  13.0675  13.0681
    16.4109  16.5610  19.6315  19.6315  19.6316

          k =-0.3750-0.3750-0.1250 (  2734 PWs)   bands (ev):

    -7.4973  -7.1666  -6.9613  -6.7712  -6.7584  -6.5908  -6.5555  -6.5383
     4.9409   4.9412   4.9672   5.2649   5.4195   5.4759   5.4859   6.1846
     6.2158   6.2225   6.2516   6.6372   6.6476   6.6589   6.6737   6.6932
     6.8165   7.0598   7.0721   7.2566   7.3669   7.7410   7.7472   8.0383
     9.3483   9.5386   9.7548   9.7548   9.7790  10.0542  10.0902  10.0903
    10.2804  10.2822  10.4149  10.4156  10.4361  10.5478  10.5487  10.5538
    10.5640  10.6436  10.6438  10.6461  10.8363  10.8736  10.8755  10.9547
    11.0648  11.2367  11.2691  11.2959  11.2961  11.3548  11.3556  11.4176
    12.6891  12.8352  12.8799  12.8803  13.2761  13.3305  13.3382  13.3387
    16.6947  17.6059  18.6709  19.3608  19.3611

          k = 0.3750 0.3750-0.1250 (  2734 PWs)   bands (ev):

    -7.4972  -7.1665  -6.9613  -6.7710  -6.7582  -6.5911  -6.5557  -6.5385
     4.9416   4.9470   4.9684   5.2251   5.4773   5.4804   5.4936   6.1038
     6.2016   6.2246   6.3297   6.5464   6.5615   6.6471   6.7994   6.8104
     6.8196   7.0216   7.0330   7.1437   7.4902   7.7329   7.7580   7.9871
     9.3758   9.5517   9.9381   9.9381  10.0147  10.0159  10.0374  10.0387
    10.0509  10.1719  10.2081  10.2083  10.3923  10.4368  10.4908  10.4933
    10.6531  10.6904  10.6918  10.7056  10.8902  10.9431  11.0896  11.0908
    11.2100  11.2114  11.2266  11.2641  11.2711  11.2733  11.3426  11.3436
    12.7362  12.7951  12.8771  12.8775  13.2498  13.3375  13.3380  13.3491
    16.6948  17.6043  18.6732  19.3617  19.3620

          k =-0.2500-0.2500 0.0000 (  2742 PWs)   bands (ev):

    -7.6350  -7.0173  -7.0052  -6.7205  -6.7088  -6.6018  -6.5891  -6.5361
     4.7451   4.7557   5.0554   5.0636   5.2158   5.2306   5.6835   5.9493
     6.2897   6.3095   6.5712   6.6593   6.6649   6.7765   6.8436   6.9096
     7.0004   7.1376   7.1570   7.1860   7.1952   7.4723   7.8204   8.1094
     9.5515   9.6032   9.6305   9.6320   9.7692  10.0685  10.0690  10.1254
    10.2364  10.2382  10.2995  10.3805  10.4415  10.5526  10.5540  10.5554
    10.6266  10.6578  10.6597  10.7380  10.7585  10.8146  11.0426  11.0448
    11.0996  11.2653  11.2655  11.3346  11.3643  11.3650  11.3795  11.3998
    13.0400  13.0420  13.0501  13.0501  13.0592  13.2016  13.2019  13.2314
    16.0099  18.0615  18.0634  19.3734  19.3745

 ------ SPIN DOWN ----------


          k = 0.0000 0.0000 0.0000 (  2733 PWs)   bands (ev):

    -8.0745  -6.6891  -6.6888  -6.6888  -6.6718  -6.6204  -6.6204  -6.5916
     4.0024   4.0024   4.0060   4.0276   5.3096   5.3096   5.3096   6.5017
     6.5017   6.5244   6.5244   6.5289   6.5365   6.5594   6.5594   7.9295
     7.9295   7.9327   7.9511   7.9543   7.9543   8.8282   8.8282   8.8282
     9.2444   9.2444   9.2516   9.5549   9.5549   9.6905   9.8719   9.8719
     9.9386   9.9386   9.9389  10.2240  10.2244  10.2244  10.4811  10.4811
    10.4812  10.5952  10.5952  10.5953  10.9077  10.9077  11.0345  11.0360
    11.0360  11.1753  11.2594  11.2602  11.2602  11.3790  11.3790  11.3799
    13.5413  13.5413  13.6005  13.6005  13.6006  13.6844  13.6851  13.6851
    13.7612  17.7973  17.7993  17.7993  17.8039

          k =-0.1250 0.1250 0.1250 (  2743 PWs)   bands (ev):

    -7.8994  -6.9230  -6.6828  -6.6827  -6.6713  -6.6340  -6.6338  -6.6049
     4.3206   4.3236   4.3420   4.5855   5.3229   5.3241   5.3308   6.4085
     6.4328   6.4363   6.6164   6.6544   6.6656   6.6844   6.7270   7.1731
     7.1889   7.2234   7.6688   7.6745   7.6910   7.9547   8.3892   8.3971
     9.2755   9.3318   9.3330   9.6729   9.8190   9.9558  10.0370  10.0377
    10.1055  10.2143  10.2143  10.2434  10.3670  10.5139  10.5346  10.5365
    10.5457  10.6306  10.6817  10.6830  10.8926  10.9883  11.1097  11.1111
    11.1132  11.1738  11.2543  11.2547  11.2760  11.3095  11.3379  11.3391
    13.2089  13.2753  13.2753  13.2889  13.3790  13.4170  13.4170  13.4612
    14.7679  17.5949  18.6770  18.6782  18.6810

          k = 0.2500-0.2500-0.2500 (  2764 PWs)   bands (ev):

    -7.4498  -7.4348  -6.6661  -6.6657  -6.6629  -6.6601  -6.6578  -6.6193
     5.0111   5.0145   5.0514   5.0594   5.0618   5.0682   6.0593   6.0902
     6.2949   6.3202   6.3699   6.3841   6.4462   6.4599   6.8342   6.8513
     6.9938   7.0073   7.2947   7.3037   7.4695   7.4795   7.6164   7.6333
     9.6280   9.6288   9.8129   9.8130   9.8824   9.8838  10.0180  10.0185
    10.1538  10.1553  10.2167  10.2171  10.5268  10.5293  10.6360  10.6387
    10.6545  10.6560  10.8639  10.8653  10.9572  10.9589  11.2382  11.2400
    11.2468  11.2489  11.2918  11.2936  11.3250  11.3264  11.4255  11.4288
    13.0341  13.0349  13.0408  13.0414  13.0494  13.0494  13.0594  13.0598
    16.4823  16.4855  19.6532  19.6532  19.7124

          k = 0.0000 0.0000 0.2500 (  2706 PWs)   bands (ev):

    -7.8463  -6.8050  -6.7539  -6.7539  -6.7533  -6.7274  -6.5670  -6.5509
     4.4617   4.4645   4.4744   4.4893   5.2134   5.5015   5.5015   6.5019
     6.5194   6.5387   6.5666   6.5848   6.5979   6.6165   6.6672   7.0472
     7.0476   7.1442   7.1630   7.4488   7.9564   7.9615   8.6389   8.6480
     8.9507   9.5288   9.6220   9.6221   9.8075   9.9733  10.0503  10.0508
    10.0895  10.1059  10.1790  10.2729  10.2729  10.3908  10.4040  10.5381
    10.5399  10.6073  10.6078  10.6527  10.9062  11.0025  11.0035  11.0443
    11.0506  11.1640  11.2367  11.2884  11.2894  11.3413  11.3426  11.3736
    12.8731  13.0341  13.0345  13.0378  13.5186  13.5619  13.6393  13.6401
    15.2144  18.5668  18.5681  18.5682  18.5715

          k = 0.3750-0.3750-0.1250 (  2734 PWs)   bands (ev):

    -7.4972  -7.1664  -6.9613  -6.7711  -6.7582  -6.5910  -6.5557  -6.5384
     4.9363   4.9443   4.9663   5.2868   5.4052   5.4795   5.5028   6.1516
     6.1949   6.2211   6.2518   6.5668   6.5850   6.7272   6.7366   6.8438
     6.8763   6.9088   6.9801   7.3430   7.3622   7.7075   7.7455   8.0019
     9.4504   9.6454   9.8161   9.8884   9.9496   9.9622  10.0304  10.1320
    10.1346  10.1621  10.2043  10.2816  10.3089  10.3156  10.4712  10.5049
    10.7252  10.7312  10.7356  10.7467  10.8714  10.9002  11.0340  11.0717
    11.1613  11.1890  11.2193  11.2512  11.3255  11.3296  11.3476  11.4040
    12.7339  12.7779  12.8295  12.9260  13.2304  13.2534  13.3592  13.4280
    16.6953  17.6032  18.6714  19.3635  19.3652

          k = 0.2500-0.2500 0.0000 (  2742 PWs)   bands (ev):

    -7.6349  -7.0172  -7.0051  -6.7202  -6.7085  -6.6023  -6.5897  -6.5361
     4.7467   4.7582   5.0448   5.0513   5.2369   5.2512   5.6818   5.9464
     6.2650   6.2919   6.5122   6.7036   6.7288   6.7351   6.8914   6.9075
     6.9168   7.1354   7.1544   7.1744   7.4287   7.4445   7.6188   8.1115
     9.6513   9.6530   9.7841   9.8433   9.8990   9.9004  10.0381  10.1056
    10.1267  10.2205  10.2225  10.2238  10.2239  10.3551  10.3559  10.5095
    10.7120  10.7441  10.7450  10.8208  10.8976  11.0889  11.0903  11.1086
    11.2025  11.2038  11.2262  11.2374  11.2718  11.3391  11.3988  11.3999
    13.0373  13.0416  13.0523  13.0528  13.1090  13.1465  13.1470  13.2786
    16.0086  18.0619  18.0628  19.3780  19.3791

          k = 0.0000 0.0000-0.5000 (  2762 PWs)   bands (ev):

    -7.3122  -7.2989  -6.8171  -6.8169  -6.8160  -6.7910  -6.5128  -6.4979
     4.9865   4.9927   5.0149   5.0227   5.7386   5.7642   6.0695   6.0754
     6.0959   6.1019   6.3764   6.3990   6.6301   6.6470   6.6619   6.6793
     6.6825   6.7192   6.7223   6.7254   8.1276   8.1386   8.1453   8.1564
     9.2443   9.2451   9.9435   9.9448  10.0242  10.0246  10.0400  10.0401
    10.0408  10.0443  10.1638  10.1641  10.3435  10.3441  10.4895  10.4912
    10.5111  10.5144  10.5755  10.5759  10.9067  10.9067  10.9987  11.0004
    11.1424  11.1431  11.2201  11.2218  11.3302  11.3317  11.3347  11.3355
    12.4575  12.4582  12.7153  12.7157  13.5121  13.5132  13.6123  13.6132
    17.6676  17.6681  19.2528  19.2532  19.2541

          k = 0.0000 0.2500-0.5000 (  2740 PWs)   bands (ev):

    -7.1533  -7.1525  -7.1522  -7.1256  -6.5804  -6.5779  -6.5749  -6.5476
     5.2464   5.2660   5.2714   5.3122   5.3626   5.5247   5.5261   5.6365
     6.2034   6.2327   6.2424   6.2736   6.6039   6.6086   6.6199   6.7473
     6.8884   7.2482   7.2611   7.4470   7.4652   7.4926   7.4939   7.5455
     9.7059   9.7327   9.7332   9.8005   9.9804  10.0302  10.0324  10.0638
    10.1119  10.2656  10.2817  10.2832  10.3383  10.3394  10.3928  10.4582
    10.6089  10.6565  10.6571  10.6837  10.9413  10.9426  10.9630  10.9846
    11.1675  11.1788  11.1806  11.2741  11.2894  11.2934  11.3598  11.3606
    12.7696  12.8843  12.8846  12.9980  13.1495  13.1935  13.1943  13.2388
    18.0183  18.0359  18.0389  18.0580  20.8595

          k = 0.1250 0.1250 0.1250 (  2743 PWs)   bands (ev):

    -7.8994  -6.9233  -6.6836  -6.6836  -6.6719  -6.6330  -6.6330  -6.6042
     4.3198   4.3198   4.3394   4.5905   5.3218   5.3218   5.3287   6.4488
     6.4730   6.4730   6.6037   6.6037   6.6179   6.6853   6.6853   7.1847
     7.2060   7.2060   7.6866   7.6866   7.7022   7.9609   8.4410   8.4410
     9.2563   9.2573   9.2573   9.6134   9.6134   9.9965  10.0599  10.0599
    10.0599  10.2704  10.2715  10.2715  10.5976  10.5976  10.5982  10.6162
    10.6162  10.7173  10.7173  10.7189  10.9091  10.9091  10.9336  10.9364
    10.9364  11.0286  11.2517  11.2525  11.2525  11.3893  11.3893  11.3903
    13.3295  13.3295  13.3459  13.3459  13.3459  13.3536  13.3537  13.3537
    14.7682  17.5964  18.6752  18.6752  18.6784

          k =-0.2500-0.2500-0.2500 (  2764 PWs)   bands (ev):

    -7.4512  -7.4337  -6.6721  -6.6721  -6.6664  -6.6518  -6.6518  -6.6173
     4.9798   4.9798   5.0075   5.0899   5.0899   5.1090   6.0545   6.1042
     6.2282   6.2564   6.2564   6.6564   6.6872   6.6872   6.7326   6.7326
     6.7460   6.9687   6.9687   7.4285   7.4285   7.4434   7.8518   7.8518
     9.4861   9.4861   9.4863   9.6693   9.6693  10.1113  10.1157  10.1161
    10.1161  10.4445  10.4452  10.4452  10.5018  10.5018  10.5022  10.7224
    10.7224  10.8338  10.8387  10.8387  10.8666  11.0490  11.0490  11.0522
    11.2400  11.2408  11.2408  11.2933  11.2933  11.3971  11.3971  11.3981
    13.0356  13.0359  13.0359  13.0521  13.0521  13.0675  13.0675  13.0680
    16.4109  16.5610  19.6315  19.6315  19.6316

          k =-0.3750-0.3750-0.1250 (  2734 PWs)   bands (ev):

    -7.4973  -7.1666  -6.9613  -6.7712  -6.7584  -6.5908  -6.5555  -6.5383
     4.9409   4.9412   4.9672   5.2649   5.4195   5.4759   5.4859   6.1847
     6.2158   6.2225   6.2516   6.6372   6.6476   6.6589   6.6737   6.6932
     6.8165   7.0598   7.0721   7.2566   7.3669   7.7410   7.7472   8.0383
     9.3483   9.5386   9.7547   9.7549   9.7791  10.0542  10.0903  10.0903
    10.2804  10.2822  10.4149  10.4156  10.4361  10.5479  10.5487  10.5538
    10.5640  10.6436  10.6438  10.6461  10.8363  10.8736  10.8755  10.9547
    11.0647  11.2367  11.2690  11.2959  11.2961  11.3548  11.3556  11.4176
    12.6891  12.8352  12.8799  12.8803  13.2761  13.3305  13.3382  13.3387
    16.6947  17.6059  18.6709  19.3608  19.3611

          k = 0.3750 0.3750-0.1250 (  2734 PWs)   bands (ev):

    -7.4972  -7.1665  -6.9613  -6.7710  -6.7582  -6.5911  -6.5557  -6.5385
     4.9416   4.9470   4.9684   5.2251   5.4773   5.4804   5.4936   6.1038
     6.2016   6.2246   6.3297   6.5464   6.5615   6.6471   6.7994   6.8105
     6.8196   7.0216   7.0330   7.1437   7.4902   7.7329   7.7580   7.9871
     9.3758   9.5517   9.9381   9.9381  10.0147  10.0159  10.0374  10.0387
    10.0509  10.1719  10.2081  10.2083  10.3923  10.4368  10.4909  10.4933
    10.6531  10.6905  10.6918  10.7056  10.8902  10.9431  11.0896  11.0907
    11.2099  11.2115  11.2266  11.2641  11.2711  11.2733  11.3425  11.3436
    12.7362  12.7951  12.8771  12.8776  13.2498  13.3375  13.3380  13.3491
    16.6948  17.6043  18.6732  19.3617  19.3620

          k =-0.2500-0.2500 0.0000 (  2742 PWs)   bands (ev):

    -7.6350  -7.0173  -7.0052  -6.7205  -6.7088  -6.6018  -6.5891  -6.5361
     4.7451   4.7557   5.0554   5.0636   5.2158   5.2306   5.6835   5.9493
     6.2897   6.3095   6.5712   6.6593   6.6649   6.7765   6.8436   6.9096
     7.0004   7.1376   7.1570   7.1860   7.1952   7.4723   7.8204   8.1094
     9.5515   9.6032   9.6305   9.6320   9.7692  10.0686  10.0689  10.1254
    10.2364  10.2382  10.2995  10.3805  10.4415  10.5526  10.5541  10.5554
    10.6266  10.6578  10.6597  10.7380  10.7585  10.8146  11.0426  11.0448
    11.0996  11.2653  11.2655  11.3346  11.3643  11.3650  11.3795  11.3998
    13.0400  13.0420  13.0501  13.0501  13.0592  13.2016  13.2019  13.2314
    16.0099  18.0615  18.0634  19.3734  19.3745

     the Fermi energy is    11.9524 ev

!    total energy              =    -942.07811447 Ry
     Harris-Foulkes estimate   =    -942.07811447 Ry
     estimated scf accuracy    <          7.3E-09 Ry

     The total energy is the sum of the following terms:

     one-electron contribution =     -56.32844989 Ry
     hartree contribution      =     175.71254774 Ry
     xc contribution           =    -297.54276419 Ry
     ewald contribution        =    -763.85740583 Ry
     Hubbard energy            =      -0.06204229 Ry
     smearing contrib. (-TS)   =       0.00000000 Ry

     total magnetization       =     0.00 Bohr mag/cell
     absolute magnetization    =    12.29 Bohr mag/cell

     convergence has been achieved in   7 iterations

     Writing output data file nio.save
 
     init_run     :     13.76s CPU     15.31s WALL (       1 calls)
     electrons    :    270.80s CPU    285.38s WALL (       1 calls)

     Called by init_run:
     wfcinit      :      0.68s CPU      1.22s WALL (       1 calls)
     potinit      :      1.18s CPU      1.37s WALL (       1 calls)

     Called by electrons:
     c_bands      :    110.84s CPU    116.68s WALL (       7 calls)
     sum_band     :     86.69s CPU     89.16s WALL (       7 calls)
     v_of_rho     :      7.45s CPU      8.47s WALL (       8 calls)
     newd         :     73.16s CPU     78.89s WALL (       8 calls)
     mix_rho      :      1.12s CPU      1.24s WALL (       7 calls)

     Called by c_bands:
     init_us_2    :      1.04s CPU      1.10s WALL (     105 calls)
     cegterg      :    106.83s CPU    112.04s WALL (      49 calls)

     Called by *egterg:
     h_psi        :     74.72s CPU     77.79s WALL (     233 calls)
     s_psi        :      6.48s CPU      6.52s WALL (     240 calls)
     g_psi        :      0.39s CPU      0.38s WALL (     184 calls)
     cdiaghg      :      7.97s CPU      7.96s WALL (     226 calls)

     Called by h_psi:
     add_vuspsi   :      6.24s CPU      6.22s WALL (     233 calls)

     General routines
     calbec       :     10.75s CPU     10.80s WALL (     571 calls)
     fft          :      6.32s CPU      7.20s WALL (     236 calls)
     ffts         :      0.08s CPU      0.11s WALL (      30 calls)
     fftw         :     41.55s CPU     45.71s WALL (   24005 calls)
     interpolate  :      1.18s CPU      1.55s WALL (      30 calls)
     davcio       :      0.01s CPU      1.75s WALL (     308 calls)
 
     Parallel routines
     fft_scatter  :      8.89s CPU     10.25s WALL (   24271 calls)
     EXX routines
 
     PWSCF        :  4m44.94s CPU     5m 1.18s WALL

 
   This run was terminated on:  17: 6:58  16Jun2012            

=------------------------------------------------------------------------------=
   JOB DONE.
=------------------------------------------------------------------------------=
