
     Program PWSCF v.5.0        starts on 16Jun2012 at 17:12: 7 

     This program is part of the open-source Quantum ESPRESSO suite
     for quantum simulation of materials; please cite
         "P. Giannozzi et al., J. Phys.:Condens. Matter 21 395502 (2009);
          URL http://www.quantum-espresso.org", 
     in publications or presentations arising from this work. More details at
     http://www.quantum-espresso.org/quote.php

     Parallel version (MPI), running on     4 processors
     K-points division:     npool     =    4

     Current dimensions of program PWSCF are:
     Max number of different atomic species (ntypx) = 10
     Max number of k-points (npk) =  40000
     Max angular momentum in pseudopotentials (lmaxx) =  3
     Waiting for input...
     Reading input from standard input
               file Ni.pbe-nd-rrkjus.UPF: wavefunction(s)  4S renormalized
               file Ni.pbe-nd-rrkjus.UPF: wavefunction(s)  4S renormalized
               file O.pbe-rrkjus.UPF: wavefunction(s)  2S renormalized
               file O.pbe-rrkjus.UPF: wavefunction(s)  2S renormalized

     Subspace diagonalization in iterative solution of the eigenvalue problem:
     a serial algorithm will be used

 
     G-vector sticks info
     --------------------
     sticks:   dense  smooth     PW     G-vecs:    dense   smooth      PW
     Sum        2587    1039    301                86547    22075    3479
 


     bravais-lattice index     =            0
     lattice parameter (alat)  =       7.9000  a.u.
     unit-cell volume          =     986.0780 (a.u.)^3
     number of atoms/cell      =           16
     number of atomic types    =            4
     number of electrons       =       128.00
     number of Kohn-Sham states=           77
     kinetic-energy cutoff     =      30.0000  Ry
     charge density cutoff     =     300.0000  Ry
     convergence threshold     =      1.0E-08
     mixing beta               =       0.3000
     number of iterations used =            8  plain     mixing
     Exchange-correlation      =  SLA  PW   PBE  PBE ( 1 4 3 4 0)
     EXX-fraction              =        0.00

     celldm(1)=   7.900000  celldm(2)=   0.000000  celldm(3)=   0.000000
     celldm(4)=   0.000000  celldm(5)=   0.000000  celldm(6)=   0.000000

     crystal axes: (cart. coord. in units of alat)
               a(1) = (   1.000000   1.000000   0.000000 )  
               a(2) = (   1.000000   0.000000   1.000000 )  
               a(3) = (   0.000000   1.000000   1.000000 )  

     reciprocal axes: (cart. coord. in units 2 pi/alat)
               b(1) = (  0.500000  0.500000 -0.500000 )  
               b(2) = (  0.500000 -0.500000  0.500000 )  
               b(3) = ( -0.500000  0.500000  0.500000 )  


     PseudoPot. # 1 for Ni read from file:
     ../pseudo/Ni.pbe-nd-rrkjus.UPF
     MD5 check sum: 8081f0a005c9a5470caab1a58e82ecb2
     Pseudo is Ultrasoft + core correction, Zval = 10.0
     Generated by new atomic code, or converted to UPF format
     Using radial grid of 1203 points,  6 beta functions with: 
                l(1) =   0
                l(2) =   0
                l(3) =   1
                l(4) =   1
                l(5) =   2
                l(6) =   2
     Q(r) pseudized with 0 coefficients 


     PseudoPot. # 2 for Ni read from file:
     ../pseudo/Ni.pbe-nd-rrkjus.UPF
     MD5 check sum: 8081f0a005c9a5470caab1a58e82ecb2
     Pseudo is Ultrasoft + core correction, Zval = 10.0
     Generated by new atomic code, or converted to UPF format
     Using radial grid of 1203 points,  6 beta functions with: 
                l(1) =   0
                l(2) =   0
                l(3) =   1
                l(4) =   1
                l(5) =   2
                l(6) =   2
     Q(r) pseudized with 0 coefficients 


     PseudoPot. # 3 for O  read from file:
     ../pseudo/O.pbe-rrkjus.UPF
     MD5 check sum: 390ba29e75625707450f3bd3f0eb6be9
     Pseudo is Ultrasoft, Zval =  6.0
     Generated by new atomic code, or converted to UPF format
     Using radial grid of 1269 points,  4 beta functions with: 
                l(1) =   0
                l(2) =   0
                l(3) =   1
                l(4) =   1
     Q(r) pseudized with 0 coefficients 


     PseudoPot. # 4 for O  read from file:
     ../pseudo/O.pbe-rrkjus.UPF
     MD5 check sum: 390ba29e75625707450f3bd3f0eb6be9
     Pseudo is Ultrasoft, Zval =  6.0
     Generated by new atomic code, or converted to UPF format
     Using radial grid of 1269 points,  4 beta functions with: 
                l(1) =   0
                l(2) =   0
                l(3) =   1
                l(4) =   1
     Q(r) pseudized with 0 coefficients 


     atomic species   valence    mass     pseudopotential
        Ni1           10.00     1.00000     Ni( 1.00)
        Ni2           10.00     1.00000     Ni( 1.00)
        O1             6.00     1.00000     O ( 1.00)
        O2             6.00     1.00000     O ( 1.00)

     Starting magnetic structure 
     atomic species   magnetization
        Ni1          0.500
        Ni2         -0.500
        O1           0.000
        O2           0.000
 -----
     simplified LDA+U calculation, Hubbard_lmax = 2
     atomic species  L   Hubbard U  Hubbard alpha
        Ni1          2    0.000000    0.000000
        Ni2          2    0.000000    0.000000
        O1           1    0.000000   -0.070000
        O2           1    0.000000    0.000000
 -----

      6 Sym. Ops. (no inversion) found



   Cartesian axes

     site n.     atom                  positions (alat units)
         1           Ni1 tau(   1) = (   0.0000000   0.0000000  -0.5000000  )
         2           Ni1 tau(   2) = (   1.0000000   0.5000000   0.0000000  )
         3           Ni1 tau(   3) = (   0.5000000   1.0000000   0.0000000  )
         4           Ni1 tau(   4) = (   0.5000000   0.5000000   0.5000000  )
         5           Ni2 tau(   5) = (   0.5000000   0.5000000  -0.5000000  )
         6           Ni2 tau(   6) = (   0.5000000   0.0000000   0.0000000  )
         7           Ni2 tau(   7) = (   0.0000000   0.5000000   0.0000000  )
         8           Ni2 tau(   8) = (   1.0000000   1.0000000   0.5000000  )
         9           O1  tau(   9) = (   0.0000000   0.0000000   0.0000000  )
        10           O2  tau(  10) = (   0.5000000   0.5000000   0.0000000  )
        11           O2  tau(  11) = (   0.0000000   0.5000000   0.5000000  )
        12           O2  tau(  12) = (   0.5000000   0.0000000   0.5000000  )
        13           O2  tau(  13) = (   1.0000000   0.5000000   0.5000000  )
        14           O2  tau(  14) = (   0.5000000   1.0000000   0.5000000  )
        15           O2  tau(  15) = (   0.5000000   0.5000000   1.0000000  )
        16           O2  tau(  16) = (   1.0000000   1.0000000   1.0000000  )

     number of k points=    26  gaussian smearing, width (Ry)=  0.0100
                       cart. coord. in units 2pi/alat
        k(    1) = (   0.0000000   0.0000000   0.0000000), wk =   0.0156250
        k(    2) = (  -0.1250000   0.1250000   0.1250000), wk =   0.0937500
        k(    3) = (   0.2500000  -0.2500000  -0.2500000), wk =   0.0468750
        k(    4) = (   0.0000000   0.0000000   0.2500000), wk =   0.0937500
        k(    5) = (   0.3750000  -0.3750000  -0.1250000), wk =   0.1875000
        k(    6) = (   0.2500000  -0.2500000   0.0000000), wk =   0.0937500
        k(    7) = (   0.0000000   0.0000000  -0.5000000), wk =   0.0468750
        k(    8) = (   0.0000000   0.2500000  -0.5000000), wk =   0.0937500
        k(    9) = (   0.1250000   0.1250000   0.1250000), wk =   0.0312500
        k(   10) = (  -0.2500000  -0.2500000  -0.2500000), wk =   0.0156250
        k(   11) = (  -0.3750000  -0.3750000  -0.1250000), wk =   0.0937500
        k(   12) = (   0.3750000   0.3750000  -0.1250000), wk =   0.0937500
        k(   13) = (  -0.2500000  -0.2500000   0.0000000), wk =   0.0937500
        k(   14) = (   0.0000000   0.0000000   0.0000000), wk =   0.0156250
        k(   15) = (  -0.1250000   0.1250000   0.1250000), wk =   0.0937500
        k(   16) = (   0.2500000  -0.2500000  -0.2500000), wk =   0.0468750
        k(   17) = (   0.0000000   0.0000000   0.2500000), wk =   0.0937500
        k(   18) = (   0.3750000  -0.3750000  -0.1250000), wk =   0.1875000
        k(   19) = (   0.2500000  -0.2500000   0.0000000), wk =   0.0937500
        k(   20) = (   0.0000000   0.0000000  -0.5000000), wk =   0.0468750
        k(   21) = (   0.0000000   0.2500000  -0.5000000), wk =   0.0937500
        k(   22) = (   0.1250000   0.1250000   0.1250000), wk =   0.0312500
        k(   23) = (  -0.2500000  -0.2500000  -0.2500000), wk =   0.0156250
        k(   24) = (  -0.3750000  -0.3750000  -0.1250000), wk =   0.0937500
        k(   25) = (   0.3750000   0.3750000  -0.1250000), wk =   0.0937500
        k(   26) = (  -0.2500000  -0.2500000   0.0000000), wk =   0.0937500

     Dense  grid:    86547 G-vectors     FFT dimensions: (  64,  64,  64)

     Smooth grid:    22075 G-vectors     FFT dimensions: (  40,  40,  40)

     Largest allocated arrays     est. size (Mb)     dimensions
        Kohn-Sham Wavefunctions         3.25 Mb     (   2764,   77)
        Atomic wavefunctions            3.37 Mb     (   2764,   80)
        NL pseudopotentials             8.77 Mb     (   2764,  208)
        Each V/rho on FFT grid          8.00 Mb     ( 262144,   2)
        Each G-vector array             0.66 Mb     (  86547)
        G-vector shells                 0.00 Mb     (    635)
     Largest temporary arrays     est. size (Mb)     dimensions
        Auxiliary wavefunctions        12.99 Mb     (   2764,  308)
        Each subspace H/S matrix        1.45 Mb     ( 308, 308)
        Each <psi_i|beta_j> matrix      0.24 Mb     (    208,   77)
        Arrays for rho mixing          32.00 Mb     ( 262144,   8)

     Check: negative/imaginary core charge=   -0.000047    0.000000

     The initial density is read from file :
     ./temp/nio.save/charge-density.dat

     Number of +U iterations with fixed ns =  0
     Starting occupations:
 --- enter write_ns ---
 LDA+U parameters:
U( 1)     =  0.00000000
alpha( 1) =  0.00000000
U( 2)     =  0.00000000
alpha( 2) =  0.00000000
U( 3)     =  0.00000000
alpha( 3) = -0.07000000
U( 4)     =  0.00000000
alpha( 4) =  0.00000000
atom    1   Tr[ns(na)] (up, down, total) =   4.95241  3.75361  8.70602
   spin  1
    eigenvalues: 
  0.980  0.980  0.997  0.997  0.997
    eigenvectors:
  0.000  1.000  0.000  0.000  0.000
  0.000  0.000  0.167  0.500  0.333
  0.000  0.000  0.167  0.500  0.333
  1.000  0.000  0.000  0.000  0.000
  0.000  0.000  0.667  0.000  0.333
    occupations:
  0.980  0.000  0.000  0.000  0.000
  0.000  0.997  0.000  0.000  0.000
  0.000  0.000  0.997  0.000  0.000
  0.000  0.000  0.000  0.980  0.000
  0.000  0.000  0.000  0.000  0.997
   spin  2
    eigenvalues: 
  0.384  0.384  0.995  0.995  0.995
    eigenvectors:
  1.000  0.000  0.000  0.000  0.000
  0.000  0.000  0.167  0.500  0.333
  0.000  0.000  0.167  0.500  0.333
  0.000  1.000  0.000  0.000  0.000
  0.000  0.000  0.667  0.000  0.333
    occupations:
  0.384  0.001  0.001  0.000  0.001
  0.001  0.995  0.000  0.001  0.000
  0.001  0.000  0.995 -0.001  0.000
  0.000  0.001 -0.001  0.384  0.000
  0.001  0.000  0.000  0.000  0.995
atomic mag. moment =     1.198793
atom    2   Tr[ns(na)] (up, down, total) =   4.95241  3.75361  8.70602
   spin  1
    eigenvalues: 
  0.980  0.980  0.997  0.997  0.997
    eigenvectors:
  0.750  0.250  0.000  0.000  0.000
  0.000  0.000  0.667  0.000  0.333
  0.000  0.000  0.167  0.500  0.333
  0.250  0.750  0.000  0.000  0.000
  0.000  0.000  0.167  0.500  0.333
    occupations:
  0.980  0.000  0.000  0.000  0.000
  0.000  0.997  0.000  0.000  0.000
  0.000  0.000  0.997  0.000  0.000
  0.000  0.000  0.000  0.980  0.000
  0.000  0.000  0.000  0.000  0.997
   spin  2
    eigenvalues: 
  0.384  0.384  0.995  0.995  0.995
    eigenvectors:
  0.250  0.750  0.000  0.000  0.000
  0.000  0.000  0.667  0.000  0.333
  0.000  0.000  0.167  0.500  0.333
  0.750  0.250  0.000  0.000  0.000
  0.000  0.000  0.167  0.500  0.333
    occupations:
  0.384  0.001  0.001  0.000  0.001
  0.001  0.995  0.000  0.001  0.000
  0.001  0.000  0.995 -0.001  0.000
  0.000  0.001 -0.001  0.384  0.000
  0.001  0.000  0.000  0.000  0.995
atomic mag. moment =     1.198793
atom    3   Tr[ns(na)] (up, down, total) =   4.95241  3.75361  8.70602
   spin  1
    eigenvalues: 
  0.980  0.980  0.997  0.997  0.997
    eigenvectors:
  0.750  0.250  0.000  0.000  0.000
  0.000  0.000  0.167  0.500  0.333
  0.000  0.000  0.667  0.000  0.333
  0.250  0.750  0.000  0.000  0.000
  0.000  0.000  0.167  0.500  0.333
    occupations:
  0.980  0.000  0.000  0.000  0.000
  0.000  0.997  0.000  0.000  0.000
  0.000  0.000  0.997  0.000  0.000
  0.000  0.000  0.000  0.980  0.000
  0.000  0.000  0.000  0.000  0.997
   spin  2
    eigenvalues: 
  0.384  0.384  0.995  0.995  0.995
    eigenvectors:
  0.250  0.750  0.000  0.000  0.000
  0.000  0.000  0.167  0.500  0.333
  0.000  0.000  0.667  0.000  0.333
  0.750  0.250  0.000  0.000  0.000
  0.000  0.000  0.167  0.500  0.333
    occupations:
  0.384  0.001  0.001  0.000  0.001
  0.001  0.995  0.000  0.001  0.000
  0.001  0.000  0.995 -0.001  0.000
  0.000  0.001 -0.001  0.384  0.000
  0.001  0.000  0.000  0.000  0.995
atomic mag. moment =     1.198793
atom    4   Tr[ns(na)] (up, down, total) =   4.95241  3.75362  8.70603
   spin  1
    eigenvalues: 
  0.980  0.980  0.997  0.997  0.997
    eigenvectors:
  0.294  0.706  0.000  0.000  0.000
  0.000  0.000  0.038  0.629  0.333
  0.000  0.000  0.347  0.319  0.333
  0.706  0.294  0.000  0.000  0.000
  0.000  0.000  0.615  0.052  0.333
    occupations:
  0.980  0.000  0.000  0.000  0.000
  0.000  0.997  0.000  0.000  0.000
  0.000  0.000  0.997  0.000  0.000
  0.000  0.000  0.000  0.980  0.000
  0.000  0.000  0.000  0.000  0.997
   spin  2
    eigenvalues: 
  0.384  0.384  0.995  0.995  0.995
    eigenvectors:
  0.565  0.435  0.000  0.000  0.000
  0.000  0.000  0.116  0.551  0.333
  0.000  0.000  0.224  0.443  0.333
  0.435  0.565  0.000  0.000  0.000
  0.000  0.000  0.661  0.006  0.333
    occupations:
  0.384  0.001  0.001  0.000  0.001
  0.001  0.995  0.000  0.001  0.000
  0.001  0.000  0.995 -0.001  0.000
  0.000  0.001 -0.001  0.384  0.000
  0.001  0.000  0.000  0.000  0.995
atomic mag. moment =     1.198788
atom    5   Tr[ns(na)] (up, down, total) =   3.75362  4.95241  8.70602
   spin  1
    eigenvalues: 
  0.384  0.384  0.995  0.995  0.995
    eigenvectors:
  0.295  0.705  0.000  0.000  0.000
  0.000  0.000  0.133  0.533  0.333
  0.000  0.000  0.202  0.464  0.333
  0.705  0.295  0.000  0.000  0.000
  0.000  0.000  0.664  0.002  0.333
    occupations:
  0.384  0.001  0.001  0.000  0.001
  0.001  0.995  0.000  0.001  0.000
  0.001  0.000  0.995 -0.001  0.000
  0.000  0.001 -0.001  0.384  0.000
  0.001  0.000  0.000  0.000  0.995
   spin  2
    eigenvalues: 
  0.980  0.980  0.997  0.997  0.997
    eigenvectors:
  0.491  0.509  0.000  0.000  0.000
  0.000  0.000  0.012  0.655  0.333
  0.000  0.000  0.417  0.250  0.333
  0.509  0.491  0.000  0.000  0.000
  0.000  0.000  0.571  0.096  0.333
    occupations:
  0.980  0.000  0.000  0.000  0.000
  0.000  0.997  0.000  0.000  0.000
  0.000  0.000  0.997  0.000  0.000
  0.000  0.000  0.000  0.980  0.000
  0.000  0.000  0.000  0.000  0.997
atomic mag. moment =    -1.198791
atom    6   Tr[ns(na)] (up, down, total) =   3.75362  4.95241  8.70602
   spin  1
    eigenvalues: 
  0.384  0.384  0.995  0.995  0.995
    eigenvectors:
  0.250  0.750  0.000  0.000  0.000
  0.000  0.000  0.167  0.500  0.333
  0.000  0.000  0.667  0.000  0.333
  0.750  0.250  0.000  0.000  0.000
  0.000  0.000  0.167  0.500  0.333
    occupations:
  0.384  0.001  0.001  0.000  0.001
  0.001  0.995  0.000  0.001  0.000
  0.001  0.000  0.995 -0.001  0.000
  0.000  0.001 -0.001  0.384  0.000
  0.001  0.000  0.000  0.000  0.995
   spin  2
    eigenvalues: 
  0.980  0.980  0.997  0.997  0.997
    eigenvectors:
  0.750  0.250  0.000  0.000  0.000
  0.000  0.000  0.167  0.500  0.333
  0.000  0.000  0.667  0.000  0.333
  0.250  0.750  0.000  0.000  0.000
  0.000  0.000  0.167  0.500  0.333
    occupations:
  0.980  0.000  0.000  0.000  0.000
  0.000  0.997  0.000  0.000  0.000
  0.000  0.000  0.997  0.000  0.000
  0.000  0.000  0.000  0.980  0.000
  0.000  0.000  0.000  0.000  0.997
atomic mag. moment =    -1.198792
atom    7   Tr[ns(na)] (up, down, total) =   3.75362  4.95241  8.70602
   spin  1
    eigenvalues: 
  0.384  0.384  0.995  0.995  0.995
    eigenvectors:
  0.250  0.750  0.000  0.000  0.000
  0.000  0.000  0.667  0.000  0.333
  0.000  0.000  0.167  0.500  0.333
  0.750  0.250  0.000  0.000  0.000
  0.000  0.000  0.167  0.500  0.333
    occupations:
  0.384  0.001  0.001  0.000  0.001
  0.001  0.995  0.000  0.001  0.000
  0.001  0.000  0.995 -0.001  0.000
  0.000  0.001 -0.001  0.384  0.000
  0.001  0.000  0.000  0.000  0.995
   spin  2
    eigenvalues: 
  0.980  0.980  0.997  0.997  0.997
    eigenvectors:
  0.750  0.250  0.000  0.000  0.000
  0.000  0.000  0.667  0.000  0.333
  0.000  0.000  0.167  0.500  0.333
  0.250  0.750  0.000  0.000  0.000
  0.000  0.000  0.167  0.500  0.333
    occupations:
  0.980  0.000  0.000  0.000  0.000
  0.000  0.997  0.000  0.000  0.000
  0.000  0.000  0.997  0.000  0.000
  0.000  0.000  0.000  0.980  0.000
  0.000  0.000  0.000  0.000  0.997
atomic mag. moment =    -1.198792
atom    8   Tr[ns(na)] (up, down, total) =   3.75362  4.95241  8.70602
   spin  1
    eigenvalues: 
  0.384  0.384  0.995  0.995  0.995
    eigenvectors:
  1.000  0.000  0.000  0.000  0.000
  0.000  0.000  0.167  0.500  0.333
  0.000  0.000  0.167  0.500  0.333
  0.000  1.000  0.000  0.000  0.000
  0.000  0.000  0.667  0.000  0.333
    occupations:
  0.384  0.001  0.001  0.000  0.001
  0.001  0.995  0.000  0.001  0.000
  0.001  0.000  0.995 -0.001  0.000
  0.000  0.001 -0.001  0.384  0.000
  0.001  0.000  0.000  0.000  0.995
   spin  2
    eigenvalues: 
  0.980  0.980  0.997  0.997  0.997
    eigenvectors:
  0.000  1.000  0.000  0.000  0.000
  0.000  0.000  0.167  0.500  0.333
  0.000  0.000  0.167  0.500  0.333
  1.000  0.000  0.000  0.000  0.000
  0.000  0.000  0.667  0.000  0.333
    occupations:
  0.980  0.000  0.000  0.000  0.000
  0.000  0.997  0.000  0.000  0.000
  0.000  0.000  0.997  0.000  0.000
  0.000  0.000  0.000  0.980  0.000
  0.000  0.000  0.000  0.000  0.997
atomic mag. moment =    -1.198792
atom    9   Tr[ns(na)] (up, down, total) =   2.81114  2.81114  5.62228
   spin  1
    eigenvalues: 
  0.937  0.937  0.938
    eigenvectors:
  0.329  0.338  0.333
  0.624  0.043  0.333
  0.047  0.620  0.333
    occupations:
  0.937  0.000  0.000
  0.000  0.937  0.000
  0.000  0.000  0.937
   spin  2
    eigenvalues: 
  0.937  0.937  0.938
    eigenvectors:
  0.444  0.223  0.333
  0.551  0.116  0.333
  0.006  0.661  0.333
    occupations:
  0.937  0.000  0.000
  0.000  0.937  0.000
  0.000  0.000  0.937
atomic mag. moment =    -0.000001
atom   10   Tr[ns(na)] (up, down, total) =   2.81114  2.81114  5.62228
   spin  1
    eigenvalues: 
  0.937  0.937  0.938
    eigenvectors:
  0.667  0.000  0.333
  0.167  0.500  0.333
  0.167  0.500  0.333
    occupations:
  0.937  0.000  0.000
  0.000  0.937  0.000
  0.000  0.000  0.937
   spin  2
    eigenvalues: 
  0.937  0.937  0.938
    eigenvectors:
  0.667  0.000  0.333
  0.167  0.500  0.333
  0.167  0.500  0.333
    occupations:
  0.937  0.000  0.000
  0.000  0.937  0.000
  0.000  0.000  0.937
atomic mag. moment =     0.000000
atom   11   Tr[ns(na)] (up, down, total) =   2.81114  2.81114  5.62228
   spin  1
    eigenvalues: 
  0.937  0.937  0.938
    eigenvectors:
  0.167  0.500  0.333
  0.667  0.000  0.333
  0.167  0.500  0.333
    occupations:
  0.937  0.000  0.000
  0.000  0.937  0.000
  0.000  0.000  0.937
   spin  2
    eigenvalues: 
  0.937  0.937  0.938
    eigenvectors:
  0.167  0.500  0.333
  0.667  0.000  0.333
  0.167  0.500  0.333
    occupations:
  0.937  0.000  0.000
  0.000  0.937  0.000
  0.000  0.000  0.937
atomic mag. moment =     0.000000
atom   12   Tr[ns(na)] (up, down, total) =   2.81114  2.81114  5.62228
   spin  1
    eigenvalues: 
  0.937  0.937  0.938
    eigenvectors:
  0.167  0.500  0.333
  0.167  0.500  0.333
  0.667  0.000  0.333
    occupations:
  0.937  0.000  0.000
  0.000  0.937  0.000
  0.000  0.000  0.937
   spin  2
    eigenvalues: 
  0.937  0.937  0.938
    eigenvectors:
  0.167  0.500  0.333
  0.167  0.500  0.333
  0.667  0.000  0.333
    occupations:
  0.937  0.000  0.000
  0.000  0.937  0.000
  0.000  0.000  0.937
atomic mag. moment =     0.000000
atom   13   Tr[ns(na)] (up, down, total) =   2.81114  2.81114  5.62228
   spin  1
    eigenvalues: 
  0.937  0.937  0.938
    eigenvectors:
  0.167  0.500  0.333
  0.667  0.000  0.333
  0.167  0.500  0.333
    occupations:
  0.937  0.000  0.000
  0.000  0.937  0.000
  0.000  0.000  0.937
   spin  2
    eigenvalues: 
  0.937  0.937  0.938
    eigenvectors:
  0.167  0.500  0.333
  0.667  0.000  0.333
  0.167  0.500  0.333
    occupations:
  0.937  0.000  0.000
  0.000  0.937  0.000
  0.000  0.000  0.937
atomic mag. moment =     0.000000
atom   14   Tr[ns(na)] (up, down, total) =   2.81114  2.81114  5.62228
   spin  1
    eigenvalues: 
  0.937  0.937  0.938
    eigenvectors:
  0.167  0.500  0.333
  0.167  0.500  0.333
  0.667  0.000  0.333
    occupations:
  0.937  0.000  0.000
  0.000  0.937  0.000
  0.000  0.000  0.937
   spin  2
    eigenvalues: 
  0.937  0.937  0.938
    eigenvectors:
  0.167  0.500  0.333
  0.167  0.500  0.333
  0.667  0.000  0.333
    occupations:
  0.937  0.000  0.000
  0.000  0.937  0.000
  0.000  0.000  0.937
atomic mag. moment =     0.000000
atom   15   Tr[ns(na)] (up, down, total) =   2.81114  2.81114  5.62228
   spin  1
    eigenvalues: 
  0.937  0.937  0.938
    eigenvectors:
  0.667  0.000  0.333
  0.167  0.500  0.333
  0.167  0.500  0.333
    occupations:
  0.937  0.000  0.000
  0.000  0.937  0.000
  0.000  0.000  0.937
   spin  2
    eigenvalues: 
  0.937  0.937  0.938
    eigenvectors:
  0.667  0.000  0.333
  0.167  0.500  0.333
  0.167  0.500  0.333
    occupations:
  0.937  0.000  0.000
  0.000  0.937  0.000
  0.000  0.000  0.937
atomic mag. moment =     0.000000
atom   16   Tr[ns(na)] (up, down, total) =   2.81114  2.81114  5.62229
   spin  1
    eigenvalues: 
  0.937  0.937  0.938
    eigenvectors:
  0.459  0.207  0.333
  0.538  0.129  0.333
  0.003  0.664  0.333
    occupations:
  0.937  0.000  0.000
  0.000  0.937  0.000
  0.000  0.000  0.937
   spin  2
    eigenvalues: 
  0.937  0.937  0.938
    eigenvectors:
  0.422  0.245  0.333
  0.567  0.099  0.333
  0.011  0.656  0.333
    occupations:
  0.937  0.000  0.000
  0.000  0.937  0.000
  0.000  0.000  0.937
atomic mag. moment =     0.000000
N of occupied +U levels = 114.6264629
 --- exit write_ns ---
 Atomic wfc used for LDA+U Projector are NOT orthogonalized
     Starting wfc from file

     total cpu time spent up to now is       15.6 secs

     per-process dynamical memory:    86.3 Mb

     Self-consistent Calculation

     iteration #  1     ecut=    30.00 Ry     beta=0.30
     Davidson diagonalization with overlap
     c_bands:  1 eigenvalues not converged
     c_bands:  1 eigenvalues not converged
     ethr =  2.18E-11,  avg # of iterations = 14.3
 --- enter write_ns ---
 LDA+U parameters:
U( 1)     =  0.00000000
alpha( 1) =  0.00000000
U( 2)     =  0.00000000
alpha( 2) =  0.00000000
U( 3)     =  0.00000000
alpha( 3) = -0.07000000
U( 4)     =  0.00000000
alpha( 4) =  0.00000000
atom    1   Tr[ns(na)] (up, down, total) =   4.95242  3.75255  8.70496
   spin  1
    eigenvalues: 
  0.980  0.980  0.997  0.997  0.997
    eigenvectors:
  0.000  1.000  0.000  0.000  0.000
  0.000  0.000  0.164  0.500  0.336
  0.000  0.000  0.164  0.500  0.336
  1.000  0.000  0.000  0.000  0.000
  0.000  0.000  0.673  0.000  0.327
    occupations:
  0.980  0.000  0.000  0.000  0.000
  0.000  0.997  0.000  0.000  0.000
  0.000  0.000  0.997  0.000  0.000
  0.000  0.000  0.000  0.980  0.000
  0.000  0.000  0.000  0.000  0.997
   spin  2
    eigenvalues: 
  0.383  0.384  0.995  0.995  0.995
    eigenvectors:
  1.000  0.000  0.000  0.000  0.000
  0.000  0.000  0.163  0.500  0.337
  0.000  0.000  0.163  0.500  0.337
  0.000  1.000  0.000  0.000  0.000
  0.000  0.000  0.674  0.000  0.326
    occupations:
  0.383  0.000  0.000  0.000  0.001
  0.000  0.995  0.000  0.001  0.000
  0.000  0.000  0.995 -0.001  0.000
  0.000  0.001 -0.001  0.384  0.000
  0.001  0.000  0.000  0.000  0.995
atomic mag. moment =     1.199868
atom    2   Tr[ns(na)] (up, down, total) =   4.95242  3.75255  8.70496
   spin  1
    eigenvalues: 
  0.980  0.980  0.997  0.997  0.997
    eigenvectors:
  0.750  0.250  0.000  0.000  0.000
  0.000  0.000  0.673  0.000  0.327
  0.000  0.000  0.164  0.500  0.336
  0.250  0.750  0.000  0.000  0.000
  0.000  0.000  0.164  0.500  0.336
    occupations:
  0.980  0.000  0.000  0.000  0.000
  0.000  0.997  0.000  0.000  0.000
  0.000  0.000  0.997  0.000  0.000
  0.000  0.000  0.000  0.980  0.000
  0.000  0.000  0.000  0.000  0.997
   spin  2
    eigenvalues: 
  0.383  0.384  0.995  0.995  0.995
    eigenvectors:
  0.250  0.750  0.000  0.000  0.000
  0.000  0.000  0.674  0.000  0.326
  0.000  0.000  0.163  0.500  0.337
  0.750  0.250  0.000  0.000  0.000
  0.000  0.000  0.163  0.500  0.337
    occupations:
  0.384  0.001  0.001  0.000  0.001
  0.001  0.995  0.000  0.001  0.000
  0.001  0.000  0.995 -0.001  0.000
  0.000  0.001 -0.001  0.383  0.000
  0.001  0.000  0.000  0.000  0.995
atomic mag. moment =     1.199868
atom    3   Tr[ns(na)] (up, down, total) =   4.95242  3.75255  8.70496
   spin  1
    eigenvalues: 
  0.980  0.980  0.997  0.997  0.997
    eigenvectors:
  0.750  0.250  0.000  0.000  0.000
  0.000  0.000  0.164  0.500  0.336
  0.000  0.000  0.673  0.000  0.327
  0.250  0.750  0.000  0.000  0.000
  0.000  0.000  0.164  0.500  0.336
    occupations:
  0.980  0.000  0.000  0.000  0.000
  0.000  0.997  0.000  0.000  0.000
  0.000  0.000  0.997  0.000  0.000
  0.000  0.000  0.000  0.980  0.000
  0.000  0.000  0.000  0.000  0.997
   spin  2
    eigenvalues: 
  0.383  0.384  0.995  0.995  0.995
    eigenvectors:
  0.250  0.750  0.000  0.000  0.000
  0.000  0.000  0.163  0.500  0.337
  0.000  0.000  0.674  0.000  0.326
  0.750  0.250  0.000  0.000  0.000
  0.000  0.000  0.163  0.500  0.337
    occupations:
  0.384  0.001  0.001  0.000  0.001
  0.001  0.995  0.000  0.001  0.000
  0.001  0.000  0.995 -0.001  0.000
  0.000  0.001 -0.001  0.383  0.000
  0.001  0.000  0.000  0.000  0.995
atomic mag. moment =     1.199868
atom    4   Tr[ns(na)] (up, down, total) =   4.95241  3.75358  8.70598
   spin  1
    eigenvalues: 
  0.980  0.980  0.997  0.997  0.997
    eigenvectors:
  0.322  0.678  0.000  0.000  0.000
  0.000  0.000  0.148  0.518  0.333
  0.000  0.000  0.186  0.481  0.333
  0.678  0.322  0.000  0.000  0.000
  0.000  0.000  0.666  0.001  0.333
    occupations:
  0.980  0.000  0.000  0.000  0.000
  0.000  0.997  0.000  0.000  0.000
  0.000  0.000  0.997  0.000  0.000
  0.000  0.000  0.000  0.980  0.000
  0.000  0.000  0.000  0.000  0.997
   spin  2
    eigenvalues: 
  0.384  0.384  0.995  0.995  0.995
    eigenvectors:
  0.324  0.676  0.000  0.000  0.000
  0.000  0.000  0.181  0.486  0.333
  0.000  0.000  0.153  0.514  0.333
  0.676  0.324  0.000  0.000  0.000
  0.000  0.000  0.666  0.000  0.333
    occupations:
  0.384  0.001  0.001  0.000  0.001
  0.001  0.995  0.000  0.001  0.000
  0.001  0.000  0.995 -0.001  0.000
  0.000  0.001 -0.001  0.384  0.000
  0.001  0.000  0.000  0.000  0.995
atomic mag. moment =     1.198830
atom    5   Tr[ns(na)] (up, down, total) =   3.75360  4.95241  8.70601
   spin  1
    eigenvalues: 
  0.384  0.384  0.995  0.995  0.995
    eigenvectors:
  0.183  0.817  0.000  0.000  0.000
  0.000  0.000  0.160  0.506  0.333
  0.000  0.000  0.173  0.493  0.333
  0.817  0.183  0.000  0.000  0.000
  0.000  0.000  0.667  0.000  0.333
    occupations:
  0.384  0.001  0.001  0.000  0.001
  0.001  0.995  0.000  0.001  0.000
  0.001  0.000  0.995 -0.001  0.000
  0.000  0.001 -0.001  0.384  0.000
  0.001  0.000  0.000  0.000  0.995
   spin  2
    eigenvalues: 
  0.980  0.980  0.997  0.997  0.997
    eigenvectors:
  0.314  0.686  0.000  0.000  0.000
  0.000  0.000  0.116  0.551  0.333
  0.000  0.000  0.223  0.443  0.333
  0.686  0.314  0.000  0.000  0.000
  0.000  0.000  0.661  0.006  0.333
    occupations:
  0.980  0.000  0.000  0.000  0.000
  0.000  0.997  0.000  0.000  0.000
  0.000  0.000  0.997  0.000  0.000
  0.000  0.000  0.000  0.980  0.000
  0.000  0.000  0.000  0.000  0.997
atomic mag. moment =    -1.198810
atom    6   Tr[ns(na)] (up, down, total) =   3.75254  4.95241  8.70495
   spin  1
    eigenvalues: 
  0.383  0.384  0.995  0.995  0.995
    eigenvectors:
  0.250  0.750  0.000  0.000  0.000
  0.000  0.000  0.163  0.500  0.337
  0.000  0.000  0.675  0.000  0.325
  0.750  0.250  0.000  0.000  0.000
  0.000  0.000  0.163  0.500  0.337
    occupations:
  0.384  0.001  0.001  0.000  0.001
  0.001  0.995  0.000  0.001  0.000
  0.001  0.000  0.995 -0.001  0.000
  0.000  0.001 -0.001  0.383  0.000
  0.001  0.000  0.000  0.000  0.995
   spin  2
    eigenvalues: 
  0.980  0.980  0.997  0.997  0.997
    eigenvectors:
  0.750  0.250  0.000  0.000  0.000
  0.000  0.000  0.164  0.500  0.336
  0.000  0.000  0.671  0.000  0.329
  0.250  0.750  0.000  0.000  0.000
  0.000  0.000  0.164  0.500  0.336
    occupations:
  0.980  0.000  0.000  0.000  0.000
  0.000  0.997  0.000  0.000  0.000
  0.000  0.000  0.997  0.000  0.000
  0.000  0.000  0.000  0.980  0.000
  0.000  0.000  0.000  0.000  0.997
atomic mag. moment =    -1.199877
atom    7   Tr[ns(na)] (up, down, total) =   3.75254  4.95241  8.70495
   spin  1
    eigenvalues: 
  0.383  0.384  0.995  0.995  0.995
    eigenvectors:
  0.250  0.750  0.000  0.000  0.000
  0.000  0.000  0.675  0.000  0.325
  0.000  0.000  0.163  0.500  0.337
  0.750  0.250  0.000  0.000  0.000
  0.000  0.000  0.163  0.500  0.337
    occupations:
  0.384  0.001  0.001  0.000  0.001
  0.001  0.995  0.000  0.001  0.000
  0.001  0.000  0.995 -0.001  0.000
  0.000  0.001 -0.001  0.383  0.000
  0.001  0.000  0.000  0.000  0.995
   spin  2
    eigenvalues: 
  0.980  0.980  0.997  0.997  0.997
    eigenvectors:
  0.750  0.250  0.000  0.000  0.000
  0.000  0.000  0.671  0.000  0.329
  0.000  0.000  0.164  0.500  0.336
  0.250  0.750  0.000  0.000  0.000
  0.000  0.000  0.164  0.500  0.336
    occupations:
  0.980  0.000  0.000  0.000  0.000
  0.000  0.997  0.000  0.000  0.000
  0.000  0.000  0.997  0.000  0.000
  0.000  0.000  0.000  0.980  0.000
  0.000  0.000  0.000  0.000  0.997
atomic mag. moment =    -1.199877
atom    8   Tr[ns(na)] (up, down, total) =   3.75254  4.95241  8.70495
   spin  1
    eigenvalues: 
  0.383  0.384  0.995  0.995  0.995
    eigenvectors:
  1.000  0.000  0.000  0.000  0.000
  0.000  0.000  0.163  0.500  0.337
  0.000  0.000  0.163  0.500  0.337
  0.000  1.000  0.000  0.000  0.000
  0.000  0.000  0.675  0.000  0.325
    occupations:
  0.383  0.000  0.000  0.000  0.001
  0.000  0.995  0.000  0.001  0.000
  0.000  0.000  0.995 -0.001  0.000
  0.000  0.001 -0.001  0.384  0.000
  0.001  0.000  0.000  0.000  0.995
   spin  2
    eigenvalues: 
  0.980  0.980  0.997  0.997  0.997
    eigenvectors:
  0.000  1.000  0.000  0.000  0.000
  0.000  0.000  0.164  0.500  0.336
  0.000  0.000  0.164  0.500  0.336
  1.000  0.000  0.000  0.000  0.000
  0.000  0.000  0.671  0.000  0.329
    occupations:
  0.980  0.000  0.000  0.000  0.000
  0.000  0.997  0.000  0.000  0.000
  0.000  0.000  0.997  0.000  0.000
  0.000  0.000  0.000  0.980  0.000
  0.000  0.000  0.000  0.000  0.997
atomic mag. moment =    -1.199877
atom    9   Tr[ns(na)] (up, down, total) =   2.81424  2.81424  5.62848
   spin  1
    eigenvalues: 
  0.938  0.938  0.939
    eigenvectors:
  0.388  0.279  0.333
  0.591  0.076  0.333
  0.021  0.645  0.333
    occupations:
  0.938  0.000  0.000
  0.000  0.938  0.000
  0.000  0.000  0.938
   spin  2
    eigenvalues: 
  0.938  0.938  0.939
    eigenvectors:
  0.441  0.225  0.333
  0.552  0.114  0.333
  0.006  0.660  0.333
    occupations:
  0.938  0.000  0.000
  0.000  0.938  0.000
  0.000  0.000  0.938
atomic mag. moment =     0.000002
atom   10   Tr[ns(na)] (up, down, total) =   2.81114  2.81114  5.62227
   spin  1
    eigenvalues: 
  0.937  0.937  0.938
    eigenvectors:
  0.000  0.673  0.327
  0.500  0.164  0.336
  0.500  0.164  0.336
    occupations:
  0.937  0.000  0.000
  0.000  0.937  0.000
  0.000  0.000  0.937
   spin  2
    eigenvalues: 
  0.937  0.937  0.938
    eigenvectors:
  0.000  0.672  0.328
  0.500  0.164  0.336
  0.500  0.164  0.336
    occupations:
  0.937  0.000  0.000
  0.000  0.937  0.000
  0.000  0.000  0.937
atomic mag. moment =     0.000000
atom   11   Tr[ns(na)] (up, down, total) =   2.81114  2.81114  5.62227
   spin  1
    eigenvalues: 
  0.937  0.937  0.938
    eigenvectors:
  0.500  0.164  0.336
  0.000  0.673  0.327
  0.500  0.164  0.336
    occupations:
  0.937  0.000  0.000
  0.000  0.937  0.000
  0.000  0.000  0.937
   spin  2
    eigenvalues: 
  0.937  0.937  0.938
    eigenvectors:
  0.500  0.164  0.336
  0.000  0.672  0.328
  0.500  0.164  0.336
    occupations:
  0.937  0.000  0.000
  0.000  0.937  0.000
  0.000  0.000  0.937
atomic mag. moment =     0.000000
atom   12   Tr[ns(na)] (up, down, total) =   2.81114  2.81114  5.62227
   spin  1
    eigenvalues: 
  0.937  0.937  0.938
    eigenvectors:
  0.500  0.164  0.336
  0.500  0.164  0.336
  0.000  0.673  0.327
    occupations:
  0.937  0.000  0.000
  0.000  0.937  0.000
  0.000  0.000  0.937
   spin  2
    eigenvalues: 
  0.937  0.937  0.938
    eigenvectors:
  0.500  0.164  0.336
  0.500  0.164  0.336
  0.000  0.672  0.328
    occupations:
  0.937  0.000  0.000
  0.000  0.937  0.000
  0.000  0.000  0.937
atomic mag. moment =     0.000000
atom   13   Tr[ns(na)] (up, down, total) =   2.81115  2.81115  5.62230
   spin  1
    eigenvalues: 
  0.937  0.937  0.938
    eigenvectors:
  0.169  0.500  0.331
  0.662  0.000  0.338
  0.169  0.500  0.331
    occupations:
  0.937  0.000  0.000
  0.000  0.937  0.000
  0.000  0.000  0.937
   spin  2
    eigenvalues: 
  0.937  0.937  0.938
    eigenvectors:
  0.169  0.500  0.331
  0.662  0.000  0.338
  0.169  0.500  0.331
    occupations:
  0.937  0.000  0.000
  0.000  0.937  0.000
  0.000  0.000  0.937
atomic mag. moment =     0.000000
atom   14   Tr[ns(na)] (up, down, total) =   2.81115  2.81115  5.62230
   spin  1
    eigenvalues: 
  0.937  0.937  0.938
    eigenvectors:
  0.169  0.500  0.331
  0.169  0.500  0.331
  0.662  0.000  0.338
    occupations:
  0.937  0.000  0.000
  0.000  0.937  0.000
  0.000  0.000  0.937
   spin  2
    eigenvalues: 
  0.937  0.937  0.938
    eigenvectors:
  0.169  0.500  0.331
  0.169  0.500  0.331
  0.662  0.000  0.338
    occupations:
  0.937  0.000  0.000
  0.000  0.937  0.000
  0.000  0.000  0.937
atomic mag. moment =     0.000000
atom   15   Tr[ns(na)] (up, down, total) =   2.81115  2.81115  5.62230
   spin  1
    eigenvalues: 
  0.937  0.937  0.938
    eigenvectors:
  0.662  0.000  0.338
  0.169  0.500  0.331
  0.169  0.500  0.331
    occupations:
  0.937  0.000  0.000
  0.000  0.937  0.000
  0.000  0.000  0.937
   spin  2
    eigenvalues: 
  0.937  0.937  0.938
    eigenvectors:
  0.662  0.000  0.338
  0.169  0.500  0.331
  0.169  0.500  0.331
    occupations:
  0.937  0.000  0.000
  0.000  0.937  0.000
  0.000  0.000  0.937
atomic mag. moment =     0.000000
atom   16   Tr[ns(na)] (up, down, total) =   2.81088  2.81088  5.62175
   spin  1
    eigenvalues: 
  0.936  0.936  0.938
    eigenvectors:
  0.422  0.244  0.333
  0.567  0.100  0.333
  0.011  0.656  0.333
    occupations:
  0.937  0.000  0.000
  0.000  0.937  0.000
  0.000  0.000  0.937
   spin  2
    eigenvalues: 
  0.936  0.936  0.938
    eigenvectors:
  0.432  0.234  0.333
  0.559  0.107  0.333
  0.008  0.659  0.333
    occupations:
  0.937  0.000  0.000
  0.000  0.937  0.000
  0.000  0.000  0.937
atomic mag. moment =     0.000002
N of occupied +U levels = 114.6256689
 --- exit write_ns ---

     total cpu time spent up to now is       78.8 secs

     total energy              =    -942.04501951 Ry
     Harris-Foulkes estimate   =    -942.04504303 Ry
     estimated scf accuracy    <       0.00005189 Ry

     total magnetization       =     0.00 Bohr mag/cell
     absolute magnetization    =    12.29 Bohr mag/cell

     iteration #  2     ecut=    30.00 Ry     beta=0.30
     Davidson diagonalization with overlap
     ethr =  4.05E-08,  avg # of iterations =  2.0

     total cpu time spent up to now is      116.6 secs

     total energy              =    -942.04503158 Ry
     Harris-Foulkes estimate   =    -942.04503542 Ry
     estimated scf accuracy    <       0.00001148 Ry

     total magnetization       =     0.00 Bohr mag/cell
     absolute magnetization    =    12.29 Bohr mag/cell

     iteration #  3     ecut=    30.00 Ry     beta=0.30
     Davidson diagonalization with overlap
     ethr =  8.97E-09,  avg # of iterations =  2.0

     total cpu time spent up to now is      152.8 secs

     total energy              =    -942.04503333 Ry
     Harris-Foulkes estimate   =    -942.04503336 Ry
     estimated scf accuracy    <       0.00000019 Ry

     total magnetization       =     0.00 Bohr mag/cell
     absolute magnetization    =    12.29 Bohr mag/cell

     iteration #  4     ecut=    30.00 Ry     beta=0.30
     Davidson diagonalization with overlap
     ethr =  1.50E-10,  avg # of iterations =  2.0

     total cpu time spent up to now is      190.0 secs

     total energy              =    -942.04503335 Ry
     Harris-Foulkes estimate   =    -942.04503336 Ry
     estimated scf accuracy    <       0.00000007 Ry

     total magnetization       =     0.00 Bohr mag/cell
     absolute magnetization    =    12.29 Bohr mag/cell

     iteration #  5     ecut=    30.00 Ry     beta=0.30
     Davidson diagonalization with overlap
     ethr =  5.76E-11,  avg # of iterations =  1.3

     total cpu time spent up to now is      225.6 secs

     total energy              =    -942.04503336 Ry
     Harris-Foulkes estimate   =    -942.04503336 Ry
     estimated scf accuracy    <       0.00000002 Ry

     total magnetization       =     0.00 Bohr mag/cell
     absolute magnetization    =    12.29 Bohr mag/cell

     iteration #  6     ecut=    30.00 Ry     beta=0.30
     Davidson diagonalization with overlap
     ethr =  1.36E-11,  avg # of iterations =  1.7

     total cpu time spent up to now is      260.9 secs

     End of self-consistent calculation
 --- enter write_ns ---
 LDA+U parameters:
U( 1)     =  0.00000000
alpha( 1) =  0.00000000
U( 2)     =  0.00000000
alpha( 2) =  0.00000000
U( 3)     =  0.00000000
alpha( 3) = -0.07000000
U( 4)     =  0.00000000
alpha( 4) =  0.00000000
atom    1   Tr[ns(na)] (up, down, total) =   4.95242  3.75310  8.70552
   spin  1
    eigenvalues: 
  0.980  0.980  0.997  0.997  0.997
    eigenvectors:
  0.000  1.000  0.000  0.000  0.000
  0.000  0.000  0.500  0.180  0.320
  0.000  0.000  0.500  0.180  0.320
  1.000  0.000  0.000  0.000  0.000
  0.000  0.000  0.000  0.641  0.359
    occupations:
  0.980  0.000  0.000  0.000  0.000
  0.000  0.997  0.000  0.000  0.000
  0.000  0.000  0.997  0.000  0.000
  0.000  0.000  0.000  0.980  0.000
  0.000  0.000  0.000  0.000  0.997
   spin  2
    eigenvalues: 
  0.383  0.384  0.995  0.995  0.995
    eigenvectors:
  1.000  0.000  0.000  0.000  0.000
  0.000  0.000  0.500  0.167  0.333
  0.000  0.000  0.500  0.167  0.333
  0.000  1.000  0.000  0.000  0.000
  0.000  0.000  0.000  0.666  0.334
    occupations:
  0.383  0.001  0.001  0.000  0.001
  0.001  0.995  0.000  0.001  0.000
  0.001  0.000  0.995 -0.001  0.000
  0.000  0.001 -0.001  0.384  0.000
  0.001  0.000  0.000  0.000  0.995
atomic mag. moment =     1.199312
atom    2   Tr[ns(na)] (up, down, total) =   4.95242  3.75310  8.70552
   spin  1
    eigenvalues: 
  0.980  0.980  0.997  0.997  0.997
    eigenvectors:
  0.750  0.250  0.000  0.000  0.000
  0.000  0.000  0.000  0.641  0.359
  0.000  0.000  0.500  0.180  0.320
  0.250  0.750  0.000  0.000  0.000
  0.000  0.000  0.500  0.180  0.320
    occupations:
  0.980  0.000  0.000  0.000  0.000
  0.000  0.997  0.000  0.000  0.000
  0.000  0.000  0.997  0.000  0.000
  0.000  0.000  0.000  0.980  0.000
  0.000  0.000  0.000  0.000  0.997
   spin  2
    eigenvalues: 
  0.383  0.384  0.995  0.995  0.995
    eigenvectors:
  0.250  0.750  0.000  0.000  0.000
  0.000  0.000  0.000  0.666  0.334
  0.000  0.000  0.500  0.167  0.333
  0.750  0.250  0.000  0.000  0.000
  0.000  0.000  0.500  0.167  0.333
    occupations:
  0.384  0.001  0.001  0.000  0.001
  0.001  0.995  0.000  0.001  0.000
  0.001  0.000  0.995 -0.001  0.000
  0.000  0.001 -0.001  0.383  0.000
  0.001  0.000  0.000  0.000  0.995
atomic mag. moment =     1.199312
atom    3   Tr[ns(na)] (up, down, total) =   4.95242  3.75310  8.70552
   spin  1
    eigenvalues: 
  0.980  0.980  0.997  0.997  0.997
    eigenvectors:
  0.750  0.250  0.000  0.000  0.000
  0.000  0.000  0.500  0.180  0.320
  0.000  0.000  0.000  0.641  0.359
  0.250  0.750  0.000  0.000  0.000
  0.000  0.000  0.500  0.180  0.320
    occupations:
  0.980  0.000  0.000  0.000  0.000
  0.000  0.997  0.000  0.000  0.000
  0.000  0.000  0.997  0.000  0.000
  0.000  0.000  0.000  0.980  0.000
  0.000  0.000  0.000  0.000  0.997
   spin  2
    eigenvalues: 
  0.383  0.384  0.995  0.995  0.995
    eigenvectors:
  0.250  0.750  0.000  0.000  0.000
  0.000  0.000  0.500  0.167  0.333
  0.000  0.000  0.000  0.666  0.334
  0.750  0.250  0.000  0.000  0.000
  0.000  0.000  0.500  0.167  0.333
    occupations:
  0.384  0.001  0.001  0.000  0.001
  0.001  0.995  0.000  0.001  0.000
  0.001  0.000  0.995 -0.001  0.000
  0.000  0.001 -0.001  0.383  0.000
  0.001  0.000  0.000  0.000  0.995
atomic mag. moment =     1.199312
atom    4   Tr[ns(na)] (up, down, total) =   4.95241  3.75364  8.70605
   spin  1
    eigenvalues: 
  0.980  0.980  0.997  0.997  0.997
    eigenvectors:
  0.122  0.878  0.000  0.000  0.000
  0.000  0.000  0.109  0.558  0.333
  0.000  0.000  0.233  0.434  0.333
  0.878  0.122  0.000  0.000  0.000
  0.000  0.000  0.659  0.008  0.333
    occupations:
  0.980  0.000  0.000  0.000  0.000
  0.000  0.997  0.000  0.000  0.000
  0.000  0.000  0.997  0.000  0.000
  0.000  0.000  0.000  0.980  0.000
  0.000  0.000  0.000  0.000  0.997
   spin  2
    eigenvalues: 
  0.384  0.384  0.995  0.995  0.995
    eigenvectors:
  0.036  0.964  0.000  0.000  0.000
  0.000  0.000  0.173  0.494  0.333
  0.000  0.000  0.160  0.506  0.333
  0.964  0.036  0.000  0.000  0.000
  0.000  0.000  0.667  0.000  0.333
    occupations:
  0.384  0.001  0.001  0.000  0.001
  0.001  0.995  0.000  0.001  0.000
  0.001  0.000  0.995 -0.001  0.000
  0.000  0.001 -0.001  0.384  0.000
  0.001  0.000  0.000  0.000  0.995
atomic mag. moment =     1.198776
atom    5   Tr[ns(na)] (up, down, total) =   3.75359  4.95240  8.70600
   spin  1
    eigenvalues: 
  0.384  0.384  0.995  0.995  0.995
    eigenvectors:
  0.188  0.812  0.000  0.000  0.000
  0.000  0.000  0.152  0.515  0.333
  0.000  0.000  0.182  0.484  0.333
  0.812  0.188  0.000  0.000  0.000
  0.000  0.000  0.666  0.000  0.333
    occupations:
  0.384  0.001  0.001  0.000  0.001
  0.001  0.995  0.000  0.001  0.000
  0.001  0.000  0.995 -0.001  0.000
  0.000  0.001 -0.001  0.384  0.000
  0.001  0.000  0.000  0.000  0.995
   spin  2
    eigenvalues: 
  0.980  0.980  0.997  0.997  0.997
    eigenvectors:
  0.266  0.734  0.000  0.000  0.000
  0.000  0.000  0.016  0.650  0.333
  0.000  0.000  0.402  0.265  0.333
  0.734  0.266  0.000  0.000  0.000
  0.000  0.000  0.581  0.085  0.333
    occupations:
  0.980  0.000  0.000  0.000  0.000
  0.000  0.997  0.000  0.000  0.000
  0.000  0.000  0.997  0.000  0.000
  0.000  0.000  0.000  0.980  0.000
  0.000  0.000  0.000  0.000  0.997
atomic mag. moment =    -1.198813
atom    6   Tr[ns(na)] (up, down, total) =   3.75313  4.95242  8.70554
   spin  1
    eigenvalues: 
  0.383  0.384  0.995  0.995  0.995
    eigenvectors:
  0.250  0.750  0.000  0.000  0.000
  0.000  0.000  0.500  0.168  0.332
  0.000  0.000  0.000  0.665  0.335
  0.750  0.250  0.000  0.000  0.000
  0.000  0.000  0.500  0.168  0.332
    occupations:
  0.384  0.001  0.001  0.000  0.001
  0.001  0.995  0.000  0.001  0.000
  0.001  0.000  0.995 -0.001  0.000
  0.000  0.001 -0.001  0.383  0.000
  0.001  0.000  0.000  0.000  0.995
   spin  2
    eigenvalues: 
  0.980  0.980  0.997  0.997  0.997
    eigenvectors:
  0.750  0.250  0.000  0.000  0.000
  0.000  0.000  0.500  0.178  0.322
  0.000  0.000  0.000  0.644  0.356
  0.250  0.750  0.000  0.000  0.000
  0.000  0.000  0.500  0.178  0.322
    occupations:
  0.980  0.000  0.000  0.000  0.000
  0.000  0.997  0.000  0.000  0.000
  0.000  0.000  0.997  0.000  0.000
  0.000  0.000  0.000  0.980  0.000
  0.000  0.000  0.000  0.000  0.997
atomic mag. moment =    -1.199295
atom    7   Tr[ns(na)] (up, down, total) =   3.75313  4.95242  8.70554
   spin  1
    eigenvalues: 
  0.383  0.384  0.995  0.995  0.995
    eigenvectors:
  0.250  0.750  0.000  0.000  0.000
  0.000  0.000  0.000  0.665  0.335
  0.000  0.000  0.500  0.168  0.332
  0.750  0.250  0.000  0.000  0.000
  0.000  0.000  0.500  0.168  0.332
    occupations:
  0.384  0.001  0.001  0.000  0.001
  0.001  0.995  0.000  0.001  0.000
  0.001  0.000  0.995 -0.001  0.000
  0.000  0.001 -0.001  0.383  0.000
  0.001  0.000  0.000  0.000  0.995
   spin  2
    eigenvalues: 
  0.980  0.980  0.997  0.997  0.997
    eigenvectors:
  0.750  0.250  0.000  0.000  0.000
  0.000  0.000  0.000  0.644  0.356
  0.000  0.000  0.500  0.178  0.322
  0.250  0.750  0.000  0.000  0.000
  0.000  0.000  0.500  0.178  0.322
    occupations:
  0.980  0.000  0.000  0.000  0.000
  0.000  0.997  0.000  0.000  0.000
  0.000  0.000  0.997  0.000  0.000
  0.000  0.000  0.000  0.980  0.000
  0.000  0.000  0.000  0.000  0.997
atomic mag. moment =    -1.199295
atom    8   Tr[ns(na)] (up, down, total) =   3.75313  4.95242  8.70554
   spin  1
    eigenvalues: 
  0.383  0.384  0.995  0.995  0.995
    eigenvectors:
  1.000  0.000  0.000  0.000  0.000
  0.000  0.000  0.500  0.168  0.332
  0.000  0.000  0.500  0.168  0.332
  0.000  1.000  0.000  0.000  0.000
  0.000  0.000  0.000  0.665  0.335
    occupations:
  0.383  0.001  0.001  0.000  0.001
  0.001  0.995  0.000  0.001  0.000
  0.001  0.000  0.995 -0.001  0.000
  0.000  0.001 -0.001  0.384  0.000
  0.001  0.000  0.000  0.000  0.995
   spin  2
    eigenvalues: 
  0.980  0.980  0.997  0.997  0.997
    eigenvectors:
  0.000  1.000  0.000  0.000  0.000
  0.000  0.000  0.500  0.178  0.322
  0.000  0.000  0.500  0.178  0.322
  1.000  0.000  0.000  0.000  0.000
  0.000  0.000  0.000  0.644  0.356
    occupations:
  0.980  0.000  0.000  0.000  0.000
  0.000  0.997  0.000  0.000  0.000
  0.000  0.000  0.997  0.000  0.000
  0.000  0.000  0.000  0.980  0.000
  0.000  0.000  0.000  0.000  0.997
atomic mag. moment =    -1.199295
atom    9   Tr[ns(na)] (up, down, total) =   2.81237  2.81237  5.62474
   spin  1
    eigenvalues: 
  0.937  0.937  0.938
    eigenvectors:
  0.425  0.241  0.333
  0.565  0.102  0.333
  0.010  0.657  0.333
    occupations:
  0.937  0.000  0.000
  0.000  0.937  0.000
  0.000  0.000  0.937
   spin  2
    eigenvalues: 
  0.937  0.937  0.938
    eigenvectors:
  0.367  0.299  0.333
  0.604  0.063  0.333
  0.029  0.637  0.333
    occupations:
  0.937  0.000  0.000
  0.000  0.937  0.000
  0.000  0.000  0.937
atomic mag. moment =    -0.000004
atom   10   Tr[ns(na)] (up, down, total) =   2.81113  2.81113  5.62226
   spin  1
    eigenvalues: 
  0.937  0.937  0.938
    eigenvectors:
  0.000  0.667  0.333
  0.500  0.166  0.334
  0.500  0.166  0.334
    occupations:
  0.937  0.000  0.000
  0.000  0.937  0.000
  0.000  0.000  0.937
   spin  2
    eigenvalues: 
  0.937  0.937  0.938
    eigenvectors:
  0.000  0.669  0.331
  0.500  0.166  0.334
  0.500  0.166  0.334
    occupations:
  0.937  0.000  0.000
  0.000  0.937  0.000
  0.000  0.000  0.937
atomic mag. moment =     0.000000
atom   11   Tr[ns(na)] (up, down, total) =   2.81113  2.81113  5.62226
   spin  1
    eigenvalues: 
  0.937  0.937  0.938
    eigenvectors:
  0.500  0.166  0.334
  0.000  0.667  0.333
  0.500  0.166  0.334
    occupations:
  0.937  0.000  0.000
  0.000  0.937  0.000
  0.000  0.000  0.937
   spin  2
    eigenvalues: 
  0.937  0.937  0.938
    eigenvectors:
  0.500  0.166  0.334
  0.000  0.669  0.331
  0.500  0.166  0.334
    occupations:
  0.937  0.000  0.000
  0.000  0.937  0.000
  0.000  0.000  0.937
atomic mag. moment =     0.000000
atom   12   Tr[ns(na)] (up, down, total) =   2.81113  2.81113  5.62226
   spin  1
    eigenvalues: 
  0.937  0.937  0.938
    eigenvectors:
  0.500  0.166  0.334
  0.500  0.166  0.334
  0.000  0.667  0.333
    occupations:
  0.937  0.000  0.000
  0.000  0.937  0.000
  0.000  0.000  0.937
   spin  2
    eigenvalues: 
  0.937  0.937  0.938
    eigenvectors:
  0.500  0.166  0.334
  0.500  0.166  0.334
  0.000  0.669  0.331
    occupations:
  0.937  0.000  0.000
  0.000  0.937  0.000
  0.000  0.000  0.937
atomic mag. moment =     0.000000
atom   13   Tr[ns(na)] (up, down, total) =   2.81113  2.81113  5.62226
   spin  1
    eigenvalues: 
  0.937  0.937  0.938
    eigenvectors:
  0.169  0.500  0.331
  0.663  0.000  0.337
  0.169  0.500  0.331
    occupations:
  0.937  0.000  0.000
  0.000  0.937  0.000
  0.000  0.000  0.937
   spin  2
    eigenvalues: 
  0.937  0.937  0.938
    eigenvectors:
  0.168  0.500  0.332
  0.664  0.000  0.336
  0.168  0.500  0.332
    occupations:
  0.937  0.000  0.000
  0.000  0.937  0.000
  0.000  0.000  0.937
atomic mag. moment =     0.000000
atom   14   Tr[ns(na)] (up, down, total) =   2.81113  2.81113  5.62226
   spin  1
    eigenvalues: 
  0.937  0.937  0.938
    eigenvectors:
  0.169  0.500  0.331
  0.169  0.500  0.331
  0.663  0.000  0.337
    occupations:
  0.937  0.000  0.000
  0.000  0.937  0.000
  0.000  0.000  0.937
   spin  2
    eigenvalues: 
  0.937  0.937  0.938
    eigenvectors:
  0.168  0.500  0.332
  0.168  0.500  0.332
  0.664  0.000  0.336
    occupations:
  0.937  0.000  0.000
  0.000  0.937  0.000
  0.000  0.000  0.937
atomic mag. moment =     0.000000
atom   15   Tr[ns(na)] (up, down, total) =   2.81113  2.81113  5.62226
   spin  1
    eigenvalues: 
  0.937  0.937  0.938
    eigenvectors:
  0.663  0.000  0.337
  0.169  0.500  0.331
  0.169  0.500  0.331
    occupations:
  0.937  0.000  0.000
  0.000  0.937  0.000
  0.000  0.000  0.937
   spin  2
    eigenvalues: 
  0.937  0.937  0.938
    eigenvectors:
  0.664  0.000  0.336
  0.168  0.500  0.332
  0.168  0.500  0.332
    occupations:
  0.937  0.000  0.000
  0.000  0.937  0.000
  0.000  0.000  0.937
atomic mag. moment =     0.000000
atom   16   Tr[ns(na)] (up, down, total) =   2.81116  2.81116  5.62231
   spin  1
    eigenvalues: 
  0.937  0.937  0.938
    eigenvectors:
  0.395  0.272  0.333
  0.586  0.080  0.333
  0.019  0.648  0.333
    occupations:
  0.937  0.000  0.000
  0.000  0.937  0.000
  0.000  0.000  0.937
   spin  2
    eigenvalues: 
  0.937  0.937  0.938
    eigenvectors:
  0.449  0.218  0.333
  0.547  0.120  0.333
  0.005  0.662  0.333
    occupations:
  0.937  0.000  0.000
  0.000  0.937  0.000
  0.000  0.000  0.937
atomic mag. moment =    -0.000004
N of occupied +U levels = 114.6258426
 --- exit write_ns ---

 ------ SPIN UP ------------


          k = 0.0000 0.0000 0.0000 (  2733 PWs)   bands (ev):

    -8.0765  -6.6882  -6.6879  -6.6879  -6.6778  -6.6195  -6.6195  -6.6082
     4.0163   4.0163   4.0195   4.0289   5.3195   5.3195   5.3195   6.5140
     6.5140   6.5267   6.5267   6.5302   6.5504   6.5609   6.5609   7.9422
     7.9422   7.9455   7.9520   7.9553   7.9553   8.8297   8.8297   8.8297
     9.2501   9.2501   9.2573   9.5568   9.5568   9.6923   9.8740   9.8740
     9.9408   9.9408   9.9410  10.2262  10.2264  10.2264  10.4833  10.4833
    10.4833  10.5973  10.5973  10.5974  10.9094  10.9094  11.0370  11.0377
    11.0377  11.1772  11.2614  11.2618  11.2618  11.3809  11.3809  11.3814
    13.5429  13.5429  13.6021  13.6021  13.6021  13.6861  13.6865  13.6865
    13.7605  17.7974  17.7996  17.7996  17.8016

          k =-0.1250 0.1250 0.1250 (  2743 PWs)   bands (ev):

    -7.9012  -6.9245  -6.6818  -6.6817  -6.6745  -6.6330  -6.6328  -6.6215
     4.3345   4.3371   4.3457   4.5952   5.3336   5.3347   5.3380   6.4230
     6.4352   6.4386   6.6238   6.6644   6.6694   6.6882   6.7315   7.1847
     7.1917   7.2282   7.6779   7.6817   7.6940   7.9602   8.3940   8.4020
     9.2776   9.3342   9.3348   9.6749   9.8210   9.9580  10.0394  10.0397
    10.1077  10.2164  10.2164  10.2454  10.3698  10.5167  10.5374  10.5383
    10.5481  10.6328  10.6844  10.6850  10.8947  10.9904  11.1121  11.1128
    11.1152  11.1757  11.2563  11.2565  11.2779  11.3113  11.3400  11.3405
    13.2104  13.2767  13.2767  13.2904  13.3805  13.4184  13.4185  13.4627
    14.7673  17.5943  18.6771  18.6784  18.6796

          k = 0.2500-0.2500-0.2500 (  2764 PWs)   bands (ev):

    -7.4475  -7.4403  -6.6651  -6.6641  -6.6615  -6.6591  -6.6567  -6.6407
     5.0344   5.0382   5.0542   5.0632   5.0633   5.0693   6.0781   6.0910
     6.3107   6.3214   6.3783   6.3860   6.4537   6.4614   6.8448   6.8526
     7.0037   7.0099   7.3036   7.3077   7.4770   7.4820   7.6263   7.6345
     9.6303   9.6306   9.8149   9.8150   9.8848   9.8854  10.0202  10.0203
    10.1563  10.1570  10.2190  10.2191  10.5298  10.5310  10.6391  10.6403
    10.6566  10.6573  10.8667  10.8673  10.9602  10.9610  11.2408  11.2417
    11.2495  11.2505  11.2943  11.2952  11.3271  11.3278  11.4288  11.4303
    13.0357  13.0362  13.0423  13.0426  13.0506  13.0507  13.0608  13.0611
    16.4825  16.4840  19.6529  19.6529  19.7121

          k = 0.0000 0.0000 0.2500 (  2706 PWs)   bands (ev):

    -7.8480  -6.8052  -6.7528  -6.7527  -6.7523  -6.7401  -6.5661  -6.5594
     4.4767   4.4791   4.4834   4.4907   5.2228   5.5108   5.5109   6.5158
     6.5231   6.5418   6.5759   6.5867   6.6092   6.6177   6.6724   7.0536
     7.0538   7.1557   7.1646   7.4542   7.9629   7.9680   8.6439   8.6530
     8.9523   9.5306   9.6244   9.6244   9.8098   9.9755  10.0526  10.0529
    10.0921  10.1080  10.1815  10.2750  10.2750  10.3930  10.4065  10.5408
    10.5416  10.6097  10.6099  10.6549  10.9080  11.0048  11.0052  11.0463
    11.0525  11.1659  11.2385  11.2905  11.2910  11.3434  11.3441  11.3754
    12.8745  13.0356  13.0358  13.0391  13.5202  13.5635  13.6410  13.6414
    15.2139  18.5670  18.5681  18.5681  18.5696

          k = 0.3750-0.3750-0.1250 (  2734 PWs)   bands (ev):

    -7.4986  -7.1680  -6.9630  -6.7698  -6.7636  -6.5920  -6.5547  -6.5477
     4.9510   4.9555   4.9696   5.2962   5.4139   5.4885   5.5104   6.1648
     6.2011   6.2272   6.2567   6.5772   6.5862   6.7357   6.7412   6.8520
     6.8815   6.9142   6.9851   7.3488   7.3678   7.7127   7.7516   8.0070
     9.4524   9.6473   9.8182   9.8906   9.9517   9.9643  10.0327  10.1342
    10.1368  10.1644  10.2064  10.2837  10.3114  10.3179  10.4734  10.5072
    10.7279  10.7337  10.7377  10.7493  10.8736  10.9020  11.0358  11.0736
    11.1634  11.1909  11.2213  11.2530  11.3276  11.3315  11.3496  11.4060
    12.7352  12.7791  12.8309  12.9273  13.2319  13.2549  13.3607  13.4295
    16.6947  17.6026  18.6709  19.3629  19.3645

          k = 0.2500-0.2500 0.0000 (  2742 PWs)   bands (ev):

    -7.6365  -7.0157  -7.0098  -6.7190  -6.7131  -6.6014  -6.5953  -6.5415
     4.7592   4.7662   5.0557   5.0588   5.2496   5.2564   5.6905   5.9547
     6.2758   6.2949   6.5187   6.7108   6.7358   6.7391   6.9020   6.9094
     6.9224   7.1464   7.1555   7.1806   7.4387   7.4463   7.6237   8.1165
     9.6539   9.6547   9.7860   9.8454   9.9014   9.9020  10.0404  10.1077
    10.1292  10.2226  10.2251  10.2257  10.2257  10.3577  10.3581  10.5118
    10.7145  10.7466  10.7470  10.8233  10.8993  11.0914  11.0920  11.1104
    11.2048  11.2055  11.2280  11.2393  11.2743  11.3410  11.4012  11.4017
    13.0387  13.0430  13.0538  13.0541  13.1105  13.1480  13.1482  13.2800
    16.0080  18.0615  18.0619  19.3780  19.3785

          k = 0.0000 0.0000-0.5000 (  2762 PWs)   bands (ev):

    -7.3103  -7.3038  -6.8157  -6.8155  -6.8151  -6.8032  -6.5118  -6.5053
     5.0034   5.0101   5.0164   5.0238   5.7543   5.7658   6.0847   6.0905
     6.0969   6.1028   6.3903   6.4004   6.6401   6.6482   6.6722   6.6804
     6.7034   6.7201   6.7237   6.7264   8.1380   8.1464   8.1491   8.1575
     9.2462   9.2466   9.9461   9.9467  10.0266  10.0268  10.0421  10.0421
    10.0441  10.0458  10.1660  10.1662  10.3460  10.3462  10.4922  10.4929
    10.5143  10.5158  10.5781  10.5783  10.9085  10.9085  11.0011  11.0019
    11.1446  11.1448  11.2225  11.2234  11.3324  11.3331  11.3368  11.3373
    12.4587  12.4591  12.7166  12.7169  13.5139  13.5145  13.6140  13.6144
    17.6672  17.6674  19.2522  19.2524  19.2533

          k = 0.0000 0.2500-0.5000 (  2740 PWs)   bands (ev):

    -7.1512  -7.1508  -7.1505  -7.1379  -6.5791  -6.5766  -6.5739  -6.5623
     5.2650   5.2739   5.2762   5.3193   5.3711   5.5328   5.5335   5.6445
     6.2143   6.2440   6.2465   6.2779   6.6113   6.6136   6.6258   6.7535
     6.8938   7.2574   7.2635   7.4543   7.4705   7.4983   7.4985   7.5501
     9.7078   9.7349   9.7351   9.8027   9.9828  10.0331  10.0341  10.0659
    10.1141  10.2679  10.2843  10.2850  10.3408  10.3413  10.3951  10.4605
    10.6115  10.6590  10.6593  10.6860  10.9436  10.9442  10.9649  10.9865
    11.1697  11.1812  11.1821  11.2759  11.2913  11.2954  11.3618  11.3622
    12.7710  12.8857  12.8859  12.9994  13.1510  13.1951  13.1955  13.2402
    18.0178  18.0360  18.0375  18.0571  20.8592

          k = 0.1250 0.1250 0.1250 (  2743 PWs)   bands (ev):

    -7.9012  -6.9248  -6.6826  -6.6826  -6.6753  -6.6320  -6.6320  -6.6206
     4.3337   4.3337   4.3427   4.6002   5.3325   5.3325   5.3357   6.4640
     6.4752   6.4752   6.6129   6.6129   6.6192   6.6899   6.6899   7.1986
     7.2087   7.2087   7.6958   7.6958   7.7032   7.9664   8.4461   8.4461
     9.2587   9.2592   9.2592   9.6154   9.6154   9.9988  10.0622  10.0622
    10.0622  10.2729  10.2734  10.2734  10.5998  10.5998  10.6001  10.6188
    10.6188  10.7200  10.7200  10.7208  10.9112  10.9112  10.9367  10.9380
    10.9380  11.0303  11.2537  11.2541  11.2541  11.3913  11.3913  11.3917
    13.3311  13.3311  13.3474  13.3474  13.3474  13.3550  13.3551  13.3551
    14.7676  17.5958  18.6754  18.6754  18.6768

          k =-0.2500-0.2500-0.2500 (  2764 PWs)   bands (ev):

    -7.4496  -7.4383  -6.6710  -6.6710  -6.6661  -6.6507  -6.6507  -6.6370
     4.9969   4.9969   5.0086   5.1000   5.1000   5.1099   6.0691   6.1101
     6.2435   6.2575   6.2575   6.6730   6.6882   6.6882   6.7412   6.7412
     6.7473   6.9737   6.9737   7.4374   7.4374   7.4445   7.8571   7.8571
     9.4881   9.4881   9.4882   9.6713   9.6713  10.1135  10.1180  10.1182
    10.1182  10.4465  10.4468  10.4468  10.5041  10.5041  10.5043  10.7241
    10.7241  10.8381  10.8404  10.8404  10.8683  11.0525  11.0525  11.0540
    11.2420  11.2424  11.2424  11.2964  11.2964  11.3990  11.3990  11.3995
    13.0371  13.0373  13.0373  13.0536  13.0536  13.0689  13.0689  13.0690
    16.4103  16.5603  19.6313  19.6313  19.6313

          k =-0.3750-0.3750-0.1250 (  2734 PWs)   bands (ev):

    -7.4987  -7.1681  -6.9630  -6.7699  -6.7637  -6.5918  -6.5545  -6.5475
     4.9524   4.9572   4.9689   5.2742   5.4285   5.4868   5.4914   6.2060
     6.2191   6.2238   6.2559   6.6451   6.6564   6.6612   6.6848   6.6942
     6.8216   7.0694   7.0751   7.2619   7.3726   7.7462   7.7533   8.0435
     9.3502   9.5405   9.7569   9.7570   9.7811  10.0563  10.0925  10.0925
    10.2832  10.2841  10.4172  10.4175  10.4383  10.5502  10.5505  10.5560
    10.5662  10.6463  10.6466  10.6477  10.8383  10.8765  10.8773  10.9565
    11.0671  11.2390  11.2710  11.2979  11.2980  11.3568  11.3572  11.4195
    12.6904  12.8364  12.8813  12.8816  13.2776  13.3320  13.3397  13.3400
    16.6941  17.6052  18.6704  19.3603  19.3605

          k = 0.3750 0.3750-0.1250 (  2734 PWs)   bands (ev):

    -7.4986  -7.1680  -6.9630  -6.7697  -6.7635  -6.5921  -6.5548  -6.5477
     4.9580   4.9584   4.9699   5.2341   5.4882   5.4915   5.4973   6.1130
     6.2153   6.2259   6.3362   6.5561   6.5636   6.6534   6.8096   6.8155
     6.8224   7.0309   7.0363   7.1487   7.4960   7.7381   7.7641   7.9923
     9.3778   9.5536   9.9402   9.9402  10.0173  10.0178  10.0394  10.0408
    10.0531  10.1741  10.2104  10.2104  10.3948  10.4392  10.4938  10.4949
    10.6554  10.6933  10.6939  10.7081  10.8924  10.9451  11.0919  11.0924
    11.2123  11.2131  11.2287  11.2660  11.2731  11.2752  11.3446  11.3452
    12.7374  12.7964  12.8785  12.8788  13.2513  13.3390  13.3393  13.3507
    16.6943  17.6036  18.6727  19.3612  19.3613

          k =-0.2500-0.2500 0.0000 (  2742 PWs)   bands (ev):

    -7.6365  -7.0158  -7.0099  -6.7193  -6.7134  -6.6009  -6.5948  -6.5415
     4.7582   4.7630   5.0657   5.0718   5.2285   5.2355   5.6922   5.9576
     6.3020   6.3112   6.5775   6.6673   6.6700   6.7825   6.8493   6.9147
     7.0071   7.1488   7.1580   7.1941   7.1987   7.4783   7.8257   8.1144
     9.5535   9.6052   9.6331   9.6338   9.7711  10.0709  10.0710  10.1275
    10.2391  10.2399  10.3022  10.3824  10.4440  10.5548  10.5564  10.5571
    10.6288  10.6606  10.6615  10.7397  10.7609  10.8170  11.0454  11.0465
    11.1015  11.2672  11.2672  11.3364  11.3663  11.3667  11.3818  11.4024
    13.0415  13.0434  13.0513  13.0514  13.0606  13.2031  13.2033  13.2327
    16.0092  18.0609  18.0628  19.3734  19.3740

 ------ SPIN DOWN ----------


          k = 0.0000 0.0000 0.0000 (  2733 PWs)   bands (ev):

    -8.0765  -6.6882  -6.6879  -6.6879  -6.6778  -6.6195  -6.6195  -6.6082
     4.0163   4.0163   4.0195   4.0289   5.3195   5.3195   5.3195   6.5140
     6.5140   6.5267   6.5267   6.5302   6.5504   6.5610   6.5610   7.9422
     7.9422   7.9455   7.9520   7.9553   7.9553   8.8297   8.8297   8.8297
     9.2501   9.2501   9.2573   9.5568   9.5568   9.6923   9.8740   9.8740
     9.9408   9.9408   9.9409  10.2262  10.2263  10.2263  10.4833  10.4833
    10.4833  10.5973  10.5973  10.5974  10.9094  10.9094  11.0370  11.0377
    11.0377  11.1772  11.2615  11.2618  11.2618  11.3810  11.3810  11.3814
    13.5429  13.5429  13.6021  13.6021  13.6022  13.6861  13.6864  13.6864
    13.7605  17.7974  17.7996  17.7996  17.8016

          k =-0.1250 0.1250 0.1250 (  2743 PWs)   bands (ev):

    -7.9012  -6.9245  -6.6818  -6.6817  -6.6745  -6.6330  -6.6328  -6.6215
     4.3345   4.3371   4.3457   4.5952   5.3336   5.3347   5.3380   6.4230
     6.4352   6.4386   6.6238   6.6644   6.6694   6.6882   6.7315   7.1847
     7.1917   7.2282   7.6779   7.6817   7.6940   7.9602   8.3940   8.4020
     9.2776   9.3342   9.3348   9.6749   9.8210   9.9580  10.0394  10.0397
    10.1077  10.2163  10.2164  10.2454  10.3697  10.5167  10.5373  10.5383
    10.5480  10.6328  10.6843  10.6850  10.8947  10.9904  11.1121  11.1128
    11.1152  11.1757  11.2563  11.2565  11.2779  11.3113  11.3400  11.3405
    13.2104  13.2767  13.2768  13.2904  13.3806  13.4184  13.4185  13.4627
    14.7673  17.5943  18.6771  18.6784  18.6796

          k = 0.2500-0.2500-0.2500 (  2764 PWs)   bands (ev):

    -7.4475  -7.4403  -6.6651  -6.6641  -6.6615  -6.6591  -6.6567  -6.6407
     5.0344   5.0382   5.0542   5.0632   5.0633   5.0693   6.0781   6.0910
     6.3107   6.3215   6.3783   6.3860   6.4537   6.4614   6.8447   6.8526
     7.0037   7.0099   7.3036   7.3077   7.4770   7.4820   7.6264   7.6345
     9.6302   9.6306   9.8149   9.8150   9.8847   9.8855  10.0201  10.0204
    10.1562  10.1570  10.2189  10.2192  10.5298  10.5310  10.6391  10.6404
    10.6567  10.6573  10.8666  10.8674  10.9601  10.9610  11.2408  11.2417
    11.2496  11.2505  11.2943  11.2951  11.3272  11.3278  11.4288  11.4304
    13.0358  13.0361  13.0424  13.0426  13.0506  13.0507  13.0609  13.0611
    16.4825  16.4840  19.6529  19.6530  19.7121

          k = 0.0000 0.0000 0.2500 (  2706 PWs)   bands (ev):

    -7.8480  -6.8052  -6.7528  -6.7527  -6.7523  -6.7401  -6.5661  -6.5594
     4.4767   4.4791   4.4834   4.4907   5.2228   5.5108   5.5109   6.5158
     6.5231   6.5418   6.5759   6.5867   6.6092   6.6177   6.6724   7.0536
     7.0538   7.1557   7.1646   7.4542   7.9629   7.9680   8.6439   8.6530
     8.9523   9.5306   9.6244   9.6244   9.8098   9.9755  10.0526  10.0528
    10.0920  10.1080  10.1815  10.2749  10.2750  10.3930  10.4065  10.5407
    10.5416  10.6097  10.6099  10.6549  10.9080  11.0048  11.0053  11.0463
    11.0525  11.1659  11.2385  11.2906  11.2910  11.3435  11.3440  11.3754
    12.8745  13.0356  13.0358  13.0391  13.5202  13.5635  13.6410  13.6414
    15.2139  18.5670  18.5681  18.5681  18.5696

          k = 0.3750-0.3750-0.1250 (  2734 PWs)   bands (ev):

    -7.4986  -7.1680  -6.9630  -6.7698  -6.7636  -6.5920  -6.5547  -6.5477
     4.9510   4.9555   4.9696   5.2962   5.4139   5.4885   5.5104   6.1648
     6.2011   6.2272   6.2567   6.5772   6.5862   6.7357   6.7412   6.8520
     6.8815   6.9142   6.9851   7.3488   7.3678   7.7127   7.7516   8.0070
     9.4523   9.6473   9.8182   9.8906   9.9517   9.9643  10.0326  10.1342
    10.1368  10.1644  10.2064  10.2837  10.3113  10.3179  10.4734  10.5072
    10.7279  10.7337  10.7377  10.7493  10.8736  10.9020  11.0358  11.0736
    11.1634  11.1909  11.2213  11.2530  11.3276  11.3316  11.3496  11.4060
    12.7352  12.7791  12.8309  12.9273  13.2319  13.2549  13.3607  13.4295
    16.6947  17.6026  18.6709  19.3629  19.3645

          k = 0.2500-0.2500 0.0000 (  2742 PWs)   bands (ev):

    -7.6365  -7.0157  -7.0098  -6.7190  -6.7131  -6.6014  -6.5953  -6.5415
     4.7592   4.7662   5.0557   5.0588   5.2496   5.2564   5.6905   5.9547
     6.2758   6.2949   6.5187   6.7108   6.7358   6.7391   6.9020   6.9094
     6.9224   7.1464   7.1555   7.1806   7.4388   7.4463   7.6237   8.1165
     9.6540   9.6547   9.7860   9.8453   9.9014   9.9021  10.0404  10.1077
    10.1292  10.2226  10.2251  10.2257  10.2258  10.3576  10.3581  10.5118
    10.7145  10.7466  10.7471  10.8233  10.8993  11.0914  11.0920  11.1104
    11.2049  11.2055  11.2280  11.2393  11.2743  11.3410  11.4011  11.4017
    13.0387  13.0431  13.0539  13.0541  13.1105  13.1480  13.1482  13.2800
    16.0080  18.0615  18.0619  19.3780  19.3785

          k = 0.0000 0.0000-0.5000 (  2762 PWs)   bands (ev):

    -7.3103  -7.3038  -6.8157  -6.8155  -6.8151  -6.8032  -6.5118  -6.5053
     5.0034   5.0100   5.0164   5.0238   5.7544   5.7658   6.0847   6.0905
     6.0969   6.1028   6.3903   6.4004   6.6401   6.6482   6.6722   6.6804
     6.7034   6.7201   6.7237   6.7264   8.1380   8.1464   8.1491   8.1575
     9.2462   9.2466   9.9462   9.9467  10.0266  10.0268  10.0421  10.0422
    10.0441  10.0458  10.1661  10.1661  10.3459  10.3462  10.4921  10.4930
    10.5143  10.5159  10.5781  10.5783  10.9084  10.9085  11.0011  11.0018
    11.1445  11.1449  11.2226  11.2233  11.3324  11.3330  11.3369  11.3373
    12.4587  12.4591  12.7167  12.7168  13.5140  13.5145  13.6140  13.6144
    17.6672  17.6674  19.2522  19.2524  19.2533

          k = 0.0000 0.2500-0.5000 (  2740 PWs)   bands (ev):

    -7.1512  -7.1508  -7.1505  -7.1379  -6.5791  -6.5766  -6.5739  -6.5623
     5.2649   5.2739   5.2762   5.3193   5.3711   5.5328   5.5335   5.6445
     6.2143   6.2440   6.2465   6.2779   6.6113   6.6136   6.6258   6.7535
     6.8937   7.2574   7.2635   7.4542   7.4705   7.4983   7.4985   7.5501
     9.7078   9.7348   9.7351   9.8027   9.9827  10.0331  10.0341  10.0658
    10.1141  10.2679  10.2843  10.2850  10.3408  10.3414  10.3951  10.4605
    10.6115  10.6590  10.6593  10.6860  10.9436  10.9443  10.9649  10.9865
    11.1697  11.1813  11.1821  11.2760  11.2914  11.2954  11.3619  11.3622
    12.7710  12.8858  12.8859  12.9994  13.1510  13.1952  13.1955  13.2402
    18.0178  18.0360  18.0375  18.0571  20.8592

          k = 0.1250 0.1250 0.1250 (  2743 PWs)   bands (ev):

    -7.9012  -6.9248  -6.6826  -6.6826  -6.6753  -6.6320  -6.6320  -6.6206
     4.3337   4.3337   4.3427   4.6002   5.3325   5.3325   5.3357   6.4640
     6.4752   6.4752   6.6129   6.6129   6.6192   6.6899   6.6899   7.1986
     7.2087   7.2087   7.6958   7.6958   7.7032   7.9664   8.4461   8.4461
     9.2587   9.2592   9.2592   9.6154   9.6154   9.9988  10.0621  10.0622
    10.0622  10.2729  10.2734  10.2734  10.5998  10.5998  10.6001  10.6188
    10.6188  10.7201  10.7201  10.7208  10.9112  10.9112  10.9367  10.9380
    10.9380  11.0303  11.2538  11.2541  11.2541  11.3913  11.3913  11.3917
    13.3311  13.3311  13.3474  13.3474  13.3475  13.3550  13.3551  13.3551
    14.7676  17.5958  18.6754  18.6754  18.6769

          k =-0.2500-0.2500-0.2500 (  2764 PWs)   bands (ev):

    -7.4497  -7.4383  -6.6710  -6.6710  -6.6661  -6.6507  -6.6507  -6.6370
     4.9969   4.9969   5.0086   5.1000   5.1000   5.1099   6.0691   6.1101
     6.2435   6.2575   6.2575   6.6730   6.6882   6.6882   6.7412   6.7412
     6.7473   6.9737   6.9737   7.4374   7.4374   7.4445   7.8571   7.8571
     9.4881   9.4881   9.4882   9.6712   9.6712  10.1135  10.1179  10.1182
    10.1182  10.4465  10.4468  10.4468  10.5041  10.5041  10.5043  10.7241
    10.7241  10.8381  10.8404  10.8404  10.8684  11.0525  11.0525  11.0539
    11.2421  11.2424  11.2424  11.2964  11.2964  11.3991  11.3991  11.3995
    13.0372  13.0373  13.0373  13.0536  13.0536  13.0688  13.0688  13.0691
    16.4103  16.5603  19.6312  19.6312  19.6313

          k =-0.3750-0.3750-0.1250 (  2734 PWs)   bands (ev):

    -7.4987  -7.1681  -6.9630  -6.7699  -6.7637  -6.5918  -6.5545  -6.5475
     4.9523   4.9572   4.9689   5.2742   5.4285   5.4868   5.4914   6.2060
     6.2191   6.2238   6.2559   6.6451   6.6564   6.6612   6.6848   6.6943
     6.8216   7.0694   7.0751   7.2619   7.3726   7.7462   7.7533   8.0435
     9.3502   9.5405   9.7569   9.7569   9.7811  10.0563  10.0925  10.0925
    10.2832  10.2841  10.4172  10.4175  10.4383  10.5502  10.5506  10.5560
    10.5662  10.6463  10.6466  10.6477  10.8383  10.8764  10.8773  10.9565
    11.0671  11.2390  11.2710  11.2979  11.2980  11.3568  11.3572  11.4195
    12.6904  12.8364  12.8814  12.8815  13.2776  13.3321  13.3398  13.3400
    16.6941  17.6052  18.6704  19.3603  19.3604

          k = 0.3750 0.3750-0.1250 (  2734 PWs)   bands (ev):

    -7.4986  -7.1680  -6.9630  -6.7697  -6.7635  -6.5921  -6.5548  -6.5477
     4.9579   4.9584   4.9699   5.2341   5.4882   5.4915   5.4973   6.1130
     6.2153   6.2259   6.3362   6.5561   6.5636   6.6534   6.8096   6.8155
     6.8224   7.0309   7.0363   7.1487   7.4960   7.7381   7.7641   7.9922
     9.3778   9.5536   9.9401   9.9402  10.0172  10.0178  10.0394  10.0408
    10.0530  10.1740  10.2103  10.2104  10.3948  10.4392  10.4938  10.4950
    10.6554  10.6932  10.6939  10.7081  10.8924  10.9451  11.0919  11.0925
    11.2124  11.2130  11.2287  11.2660  11.2732  11.2752  11.3447  11.3451
    12.7374  12.7964  12.8786  12.8788  13.2513  13.3390  13.3393  13.3507
    16.6943  17.6036  18.6727  19.3612  19.3613

          k =-0.2500-0.2500 0.0000 (  2742 PWs)   bands (ev):

    -7.6365  -7.0158  -7.0099  -6.7193  -6.7134  -6.6009  -6.5948  -6.5415
     4.7582   4.7630   5.0657   5.0718   5.2285   5.2355   5.6922   5.9576
     6.3020   6.3112   6.5774   6.6673   6.6700   6.7824   6.8493   6.9147
     7.0071   7.1488   7.1580   7.1941   7.1987   7.4784   7.8257   8.1144
     9.5535   9.6052   9.6331   9.6338   9.7711  10.0708  10.0711  10.1275
    10.2390  10.2399  10.3021  10.3824  10.4440  10.5548  10.5564  10.5571
    10.6288  10.6606  10.6615  10.7397  10.7609  10.8170  11.0454  11.0465
    11.1015  11.2672  11.2673  11.3364  11.3664  11.3666  11.3818  11.4024
    13.0416  13.0434  13.0514  13.0514  13.0606  13.2032  13.2033  13.2327
    16.0092  18.0609  18.0628  19.3734  19.3740

     the Fermi energy is    11.9540 ev

!    total energy              =    -942.04503336 Ry
     Harris-Foulkes estimate   =    -942.04503336 Ry
     estimated scf accuracy    <          7.4E-09 Ry

     The total energy is the sum of the following terms:

     one-electron contribution =     -56.32838192 Ry
     hartree contribution      =     175.71124973 Ry
     xc contribution           =    -297.54155657 Ry
     ewald contribution        =    -763.85740583 Ry
     Hubbard energy            =      -0.02893876 Ry
     smearing contrib. (-TS)   =       0.00000000 Ry

     total magnetization       =     0.00 Bohr mag/cell
     absolute magnetization    =    12.29 Bohr mag/cell

     convergence has been achieved in   6 iterations

     Writing output data file nio.save
 
     init_run     :     13.66s CPU     15.43s WALL (       1 calls)
     electrons    :    233.22s CPU    245.42s WALL (       1 calls)

     Called by init_run:
     wfcinit      :      0.64s CPU      1.42s WALL (       1 calls)
     potinit      :      1.16s CPU      1.39s WALL (       1 calls)

     Called by electrons:
     c_bands      :     96.07s CPU    101.06s WALL (       6 calls)
     sum_band     :     73.56s CPU     75.52s WALL (       6 calls)
     v_of_rho     :      6.43s CPU      7.23s WALL (       7 calls)
     newd         :     64.46s CPU     69.37s WALL (       7 calls)
     mix_rho      :      0.89s CPU      0.99s WALL (       6 calls)

     Called by c_bands:
     init_us_2    :      0.81s CPU      0.87s WALL (      91 calls)
     cegterg      :     93.08s CPU     97.56s WALL (      42 calls)

     Called by *egterg:
     h_psi        :     65.59s CPU     68.23s WALL (     212 calls)
     s_psi        :      5.80s CPU      5.79s WALL (     219 calls)
     g_psi        :      0.36s CPU      0.33s WALL (     170 calls)
     cdiaghg      :      6.29s CPU      6.26s WALL (     205 calls)

     Called by h_psi:
     add_vuspsi   :      5.47s CPU      5.49s WALL (     212 calls)

     General routines
     calbec       :      9.43s CPU      9.44s WALL (     515 calls)
     fft          :      5.58s CPU      6.26s WALL (     205 calls)
     ffts         :      0.08s CPU      0.09s WALL (      26 calls)
     fftw         :     35.83s CPU     39.12s WALL (   20762 calls)
     interpolate  :      1.08s CPU      1.36s WALL (      26 calls)
     davcio       :      0.01s CPU      1.76s WALL (     266 calls)
 
     Parallel routines
     fft_scatter  :      7.14s CPU      8.31s WALL (   20993 calls)
     EXX routines
 
     PWSCF        :  4m 7.21s CPU     4m21.32s WALL

 
   This run was terminated on:  17:16:29  16Jun2012            

=------------------------------------------------------------------------------=
   JOB DONE.
=------------------------------------------------------------------------------=
