
     Program PWSCF v.5.0        starts on 16Jun2012 at 17: 7: 1 

     This program is part of the open-source Quantum ESPRESSO suite
     for quantum simulation of materials; please cite
         "P. Giannozzi et al., J. Phys.:Condens. Matter 21 395502 (2009);
          URL http://www.quantum-espresso.org", 
     in publications or presentations arising from this work. More details at
     http://www.quantum-espresso.org/quote.php

     Parallel version (MPI), running on     4 processors
     K-points division:     npool     =    4

     Current dimensions of program PWSCF are:
     Max number of different atomic species (ntypx) = 10
     Max number of k-points (npk) =  40000
     Max angular momentum in pseudopotentials (lmaxx) =  3
     Waiting for input...
     Reading input from standard input
               file Ni.pbe-nd-rrkjus.UPF: wavefunction(s)  4S renormalized
               file Ni.pbe-nd-rrkjus.UPF: wavefunction(s)  4S renormalized
               file O.pbe-rrkjus.UPF: wavefunction(s)  2S renormalized
               file O.pbe-rrkjus.UPF: wavefunction(s)  2S renormalized

     Subspace diagonalization in iterative solution of the eigenvalue problem:
     a serial algorithm will be used

 
     G-vector sticks info
     --------------------
     sticks:   dense  smooth     PW     G-vecs:    dense   smooth      PW
     Sum        2587    1039    301                86547    22075    3479
 


     bravais-lattice index     =            0
     lattice parameter (alat)  =       7.9000  a.u.
     unit-cell volume          =     986.0780 (a.u.)^3
     number of atoms/cell      =           16
     number of atomic types    =            4
     number of electrons       =       128.00
     number of Kohn-Sham states=           77
     kinetic-energy cutoff     =      30.0000  Ry
     charge density cutoff     =     300.0000  Ry
     convergence threshold     =      1.0E-08
     mixing beta               =       0.3000
     number of iterations used =            8  plain     mixing
     Exchange-correlation      =  SLA  PW   PBE  PBE ( 1 4 3 4 0)
     EXX-fraction              =        0.00

     celldm(1)=   7.900000  celldm(2)=   0.000000  celldm(3)=   0.000000
     celldm(4)=   0.000000  celldm(5)=   0.000000  celldm(6)=   0.000000

     crystal axes: (cart. coord. in units of alat)
               a(1) = (   1.000000   1.000000   0.000000 )  
               a(2) = (   1.000000   0.000000   1.000000 )  
               a(3) = (   0.000000   1.000000   1.000000 )  

     reciprocal axes: (cart. coord. in units 2 pi/alat)
               b(1) = (  0.500000  0.500000 -0.500000 )  
               b(2) = (  0.500000 -0.500000  0.500000 )  
               b(3) = ( -0.500000  0.500000  0.500000 )  


     PseudoPot. # 1 for Ni read from file:
     ../pseudo/Ni.pbe-nd-rrkjus.UPF
     MD5 check sum: 8081f0a005c9a5470caab1a58e82ecb2
     Pseudo is Ultrasoft + core correction, Zval = 10.0
     Generated by new atomic code, or converted to UPF format
     Using radial grid of 1203 points,  6 beta functions with: 
                l(1) =   0
                l(2) =   0
                l(3) =   1
                l(4) =   1
                l(5) =   2
                l(6) =   2
     Q(r) pseudized with 0 coefficients 


     PseudoPot. # 2 for Ni read from file:
     ../pseudo/Ni.pbe-nd-rrkjus.UPF
     MD5 check sum: 8081f0a005c9a5470caab1a58e82ecb2
     Pseudo is Ultrasoft + core correction, Zval = 10.0
     Generated by new atomic code, or converted to UPF format
     Using radial grid of 1203 points,  6 beta functions with: 
                l(1) =   0
                l(2) =   0
                l(3) =   1
                l(4) =   1
                l(5) =   2
                l(6) =   2
     Q(r) pseudized with 0 coefficients 


     PseudoPot. # 3 for O  read from file:
     ../pseudo/O.pbe-rrkjus.UPF
     MD5 check sum: 390ba29e75625707450f3bd3f0eb6be9
     Pseudo is Ultrasoft, Zval =  6.0
     Generated by new atomic code, or converted to UPF format
     Using radial grid of 1269 points,  4 beta functions with: 
                l(1) =   0
                l(2) =   0
                l(3) =   1
                l(4) =   1
     Q(r) pseudized with 0 coefficients 


     PseudoPot. # 4 for O  read from file:
     ../pseudo/O.pbe-rrkjus.UPF
     MD5 check sum: 390ba29e75625707450f3bd3f0eb6be9
     Pseudo is Ultrasoft, Zval =  6.0
     Generated by new atomic code, or converted to UPF format
     Using radial grid of 1269 points,  4 beta functions with: 
                l(1) =   0
                l(2) =   0
                l(3) =   1
                l(4) =   1
     Q(r) pseudized with 0 coefficients 


     atomic species   valence    mass     pseudopotential
        Ni1           10.00     1.00000     Ni( 1.00)
        Ni2           10.00     1.00000     Ni( 1.00)
        O1             6.00     1.00000     O ( 1.00)
        O2             6.00     1.00000     O ( 1.00)

     Starting magnetic structure 
     atomic species   magnetization
        Ni1          0.500
        Ni2         -0.500
        O1           0.000
        O2           0.000
 -----
     simplified LDA+U calculation, Hubbard_lmax = 2
     atomic species  L   Hubbard U  Hubbard alpha
        Ni1          2    0.000000    0.000000
        Ni2          2    0.000000    0.000000
        O1           1    0.000000    0.150000
        O2           1    0.000000    0.000000
 -----

      6 Sym. Ops. (no inversion) found



   Cartesian axes

     site n.     atom                  positions (alat units)
         1           Ni1 tau(   1) = (   0.0000000   0.0000000  -0.5000000  )
         2           Ni1 tau(   2) = (   1.0000000   0.5000000   0.0000000  )
         3           Ni1 tau(   3) = (   0.5000000   1.0000000   0.0000000  )
         4           Ni1 tau(   4) = (   0.5000000   0.5000000   0.5000000  )
         5           Ni2 tau(   5) = (   0.5000000   0.5000000  -0.5000000  )
         6           Ni2 tau(   6) = (   0.5000000   0.0000000   0.0000000  )
         7           Ni2 tau(   7) = (   0.0000000   0.5000000   0.0000000  )
         8           Ni2 tau(   8) = (   1.0000000   1.0000000   0.5000000  )
         9           O1  tau(   9) = (   0.0000000   0.0000000   0.0000000  )
        10           O2  tau(  10) = (   0.5000000   0.5000000   0.0000000  )
        11           O2  tau(  11) = (   0.0000000   0.5000000   0.5000000  )
        12           O2  tau(  12) = (   0.5000000   0.0000000   0.5000000  )
        13           O2  tau(  13) = (   1.0000000   0.5000000   0.5000000  )
        14           O2  tau(  14) = (   0.5000000   1.0000000   0.5000000  )
        15           O2  tau(  15) = (   0.5000000   0.5000000   1.0000000  )
        16           O2  tau(  16) = (   1.0000000   1.0000000   1.0000000  )

     number of k points=    26  gaussian smearing, width (Ry)=  0.0100
                       cart. coord. in units 2pi/alat
        k(    1) = (   0.0000000   0.0000000   0.0000000), wk =   0.0156250
        k(    2) = (  -0.1250000   0.1250000   0.1250000), wk =   0.0937500
        k(    3) = (   0.2500000  -0.2500000  -0.2500000), wk =   0.0468750
        k(    4) = (   0.0000000   0.0000000   0.2500000), wk =   0.0937500
        k(    5) = (   0.3750000  -0.3750000  -0.1250000), wk =   0.1875000
        k(    6) = (   0.2500000  -0.2500000   0.0000000), wk =   0.0937500
        k(    7) = (   0.0000000   0.0000000  -0.5000000), wk =   0.0468750
        k(    8) = (   0.0000000   0.2500000  -0.5000000), wk =   0.0937500
        k(    9) = (   0.1250000   0.1250000   0.1250000), wk =   0.0312500
        k(   10) = (  -0.2500000  -0.2500000  -0.2500000), wk =   0.0156250
        k(   11) = (  -0.3750000  -0.3750000  -0.1250000), wk =   0.0937500
        k(   12) = (   0.3750000   0.3750000  -0.1250000), wk =   0.0937500
        k(   13) = (  -0.2500000  -0.2500000   0.0000000), wk =   0.0937500
        k(   14) = (   0.0000000   0.0000000   0.0000000), wk =   0.0156250
        k(   15) = (  -0.1250000   0.1250000   0.1250000), wk =   0.0937500
        k(   16) = (   0.2500000  -0.2500000  -0.2500000), wk =   0.0468750
        k(   17) = (   0.0000000   0.0000000   0.2500000), wk =   0.0937500
        k(   18) = (   0.3750000  -0.3750000  -0.1250000), wk =   0.1875000
        k(   19) = (   0.2500000  -0.2500000   0.0000000), wk =   0.0937500
        k(   20) = (   0.0000000   0.0000000  -0.5000000), wk =   0.0468750
        k(   21) = (   0.0000000   0.2500000  -0.5000000), wk =   0.0937500
        k(   22) = (   0.1250000   0.1250000   0.1250000), wk =   0.0312500
        k(   23) = (  -0.2500000  -0.2500000  -0.2500000), wk =   0.0156250
        k(   24) = (  -0.3750000  -0.3750000  -0.1250000), wk =   0.0937500
        k(   25) = (   0.3750000   0.3750000  -0.1250000), wk =   0.0937500
        k(   26) = (  -0.2500000  -0.2500000   0.0000000), wk =   0.0937500

     Dense  grid:    86547 G-vectors     FFT dimensions: (  64,  64,  64)

     Smooth grid:    22075 G-vectors     FFT dimensions: (  40,  40,  40)

     Largest allocated arrays     est. size (Mb)     dimensions
        Kohn-Sham Wavefunctions         3.25 Mb     (   2764,   77)
        Atomic wavefunctions            3.37 Mb     (   2764,   80)
        NL pseudopotentials             8.77 Mb     (   2764,  208)
        Each V/rho on FFT grid          8.00 Mb     ( 262144,   2)
        Each G-vector array             0.66 Mb     (  86547)
        G-vector shells                 0.00 Mb     (    635)
     Largest temporary arrays     est. size (Mb)     dimensions
        Auxiliary wavefunctions        12.99 Mb     (   2764,  308)
        Each subspace H/S matrix        1.45 Mb     ( 308, 308)
        Each <psi_i|beta_j> matrix      0.24 Mb     (    208,   77)
        Arrays for rho mixing          32.00 Mb     ( 262144,   8)

     Check: negative/imaginary core charge=   -0.000047    0.000000

     The initial density is read from file :
     ./temp/nio.save/charge-density.dat

     Number of +U iterations with fixed ns =  0
     Starting occupations:
 --- enter write_ns ---
 LDA+U parameters:
U( 1)     =  0.00000000
alpha( 1) =  0.00000000
U( 2)     =  0.00000000
alpha( 2) =  0.00000000
U( 3)     =  0.00000000
alpha( 3) =  0.15000000
U( 4)     =  0.00000000
alpha( 4) =  0.00000000
atom    1   Tr[ns(na)] (up, down, total) =   4.95241  3.75361  8.70602
   spin  1
    eigenvalues: 
  0.980  0.980  0.997  0.997  0.997
    eigenvectors:
  0.000  1.000  0.000  0.000  0.000
  0.000  0.000  0.167  0.500  0.333
  0.000  0.000  0.167  0.500  0.333
  1.000  0.000  0.000  0.000  0.000
  0.000  0.000  0.667  0.000  0.333
    occupations:
  0.980  0.000  0.000  0.000  0.000
  0.000  0.997  0.000  0.000  0.000
  0.000  0.000  0.997  0.000  0.000
  0.000  0.000  0.000  0.980  0.000
  0.000  0.000  0.000  0.000  0.997
   spin  2
    eigenvalues: 
  0.384  0.384  0.995  0.995  0.995
    eigenvectors:
  1.000  0.000  0.000  0.000  0.000
  0.000  0.000  0.167  0.500  0.333
  0.000  0.000  0.167  0.500  0.333
  0.000  1.000  0.000  0.000  0.000
  0.000  0.000  0.667  0.000  0.333
    occupations:
  0.384  0.001  0.001  0.000  0.001
  0.001  0.995  0.000  0.001  0.000
  0.001  0.000  0.995 -0.001  0.000
  0.000  0.001 -0.001  0.384  0.000
  0.001  0.000  0.000  0.000  0.995
atomic mag. moment =     1.198793
atom    2   Tr[ns(na)] (up, down, total) =   4.95241  3.75361  8.70602
   spin  1
    eigenvalues: 
  0.980  0.980  0.997  0.997  0.997
    eigenvectors:
  0.750  0.250  0.000  0.000  0.000
  0.000  0.000  0.667  0.000  0.333
  0.000  0.000  0.167  0.500  0.333
  0.250  0.750  0.000  0.000  0.000
  0.000  0.000  0.167  0.500  0.333
    occupations:
  0.980  0.000  0.000  0.000  0.000
  0.000  0.997  0.000  0.000  0.000
  0.000  0.000  0.997  0.000  0.000
  0.000  0.000  0.000  0.980  0.000
  0.000  0.000  0.000  0.000  0.997
   spin  2
    eigenvalues: 
  0.384  0.384  0.995  0.995  0.995
    eigenvectors:
  0.250  0.750  0.000  0.000  0.000
  0.000  0.000  0.667  0.000  0.333
  0.000  0.000  0.167  0.500  0.333
  0.750  0.250  0.000  0.000  0.000
  0.000  0.000  0.167  0.500  0.333
    occupations:
  0.384  0.001  0.001  0.000  0.001
  0.001  0.995  0.000  0.001  0.000
  0.001  0.000  0.995 -0.001  0.000
  0.000  0.001 -0.001  0.384  0.000
  0.001  0.000  0.000  0.000  0.995
atomic mag. moment =     1.198793
atom    3   Tr[ns(na)] (up, down, total) =   4.95241  3.75361  8.70602
   spin  1
    eigenvalues: 
  0.980  0.980  0.997  0.997  0.997
    eigenvectors:
  0.750  0.250  0.000  0.000  0.000
  0.000  0.000  0.167  0.500  0.333
  0.000  0.000  0.667  0.000  0.333
  0.250  0.750  0.000  0.000  0.000
  0.000  0.000  0.167  0.500  0.333
    occupations:
  0.980  0.000  0.000  0.000  0.000
  0.000  0.997  0.000  0.000  0.000
  0.000  0.000  0.997  0.000  0.000
  0.000  0.000  0.000  0.980  0.000
  0.000  0.000  0.000  0.000  0.997
   spin  2
    eigenvalues: 
  0.384  0.384  0.995  0.995  0.995
    eigenvectors:
  0.250  0.750  0.000  0.000  0.000
  0.000  0.000  0.167  0.500  0.333
  0.000  0.000  0.667  0.000  0.333
  0.750  0.250  0.000  0.000  0.000
  0.000  0.000  0.167  0.500  0.333
    occupations:
  0.384  0.001  0.001  0.000  0.001
  0.001  0.995  0.000  0.001  0.000
  0.001  0.000  0.995 -0.001  0.000
  0.000  0.001 -0.001  0.384  0.000
  0.001  0.000  0.000  0.000  0.995
atomic mag. moment =     1.198793
atom    4   Tr[ns(na)] (up, down, total) =   4.95241  3.75362  8.70603
   spin  1
    eigenvalues: 
  0.980  0.980  0.997  0.997  0.997
    eigenvectors:
  0.294  0.706  0.000  0.000  0.000
  0.000  0.000  0.038  0.629  0.333
  0.000  0.000  0.347  0.319  0.333
  0.706  0.294  0.000  0.000  0.000
  0.000  0.000  0.615  0.052  0.333
    occupations:
  0.980  0.000  0.000  0.000  0.000
  0.000  0.997  0.000  0.000  0.000
  0.000  0.000  0.997  0.000  0.000
  0.000  0.000  0.000  0.980  0.000
  0.000  0.000  0.000  0.000  0.997
   spin  2
    eigenvalues: 
  0.384  0.384  0.995  0.995  0.995
    eigenvectors:
  0.565  0.435  0.000  0.000  0.000
  0.000  0.000  0.116  0.551  0.333
  0.000  0.000  0.224  0.443  0.333
  0.435  0.565  0.000  0.000  0.000
  0.000  0.000  0.661  0.006  0.333
    occupations:
  0.384  0.001  0.001  0.000  0.001
  0.001  0.995  0.000  0.001  0.000
  0.001  0.000  0.995 -0.001  0.000
  0.000  0.001 -0.001  0.384  0.000
  0.001  0.000  0.000  0.000  0.995
atomic mag. moment =     1.198788
atom    5   Tr[ns(na)] (up, down, total) =   3.75362  4.95241  8.70602
   spin  1
    eigenvalues: 
  0.384  0.384  0.995  0.995  0.995
    eigenvectors:
  0.295  0.705  0.000  0.000  0.000
  0.000  0.000  0.133  0.533  0.333
  0.000  0.000  0.202  0.464  0.333
  0.705  0.295  0.000  0.000  0.000
  0.000  0.000  0.664  0.002  0.333
    occupations:
  0.384  0.001  0.001  0.000  0.001
  0.001  0.995  0.000  0.001  0.000
  0.001  0.000  0.995 -0.001  0.000
  0.000  0.001 -0.001  0.384  0.000
  0.001  0.000  0.000  0.000  0.995
   spin  2
    eigenvalues: 
  0.980  0.980  0.997  0.997  0.997
    eigenvectors:
  0.491  0.509  0.000  0.000  0.000
  0.000  0.000  0.012  0.655  0.333
  0.000  0.000  0.417  0.250  0.333
  0.509  0.491  0.000  0.000  0.000
  0.000  0.000  0.571  0.096  0.333
    occupations:
  0.980  0.000  0.000  0.000  0.000
  0.000  0.997  0.000  0.000  0.000
  0.000  0.000  0.997  0.000  0.000
  0.000  0.000  0.000  0.980  0.000
  0.000  0.000  0.000  0.000  0.997
atomic mag. moment =    -1.198791
atom    6   Tr[ns(na)] (up, down, total) =   3.75362  4.95241  8.70602
   spin  1
    eigenvalues: 
  0.384  0.384  0.995  0.995  0.995
    eigenvectors:
  0.250  0.750  0.000  0.000  0.000
  0.000  0.000  0.167  0.500  0.333
  0.000  0.000  0.667  0.000  0.333
  0.750  0.250  0.000  0.000  0.000
  0.000  0.000  0.167  0.500  0.333
    occupations:
  0.384  0.001  0.001  0.000  0.001
  0.001  0.995  0.000  0.001  0.000
  0.001  0.000  0.995 -0.001  0.000
  0.000  0.001 -0.001  0.384  0.000
  0.001  0.000  0.000  0.000  0.995
   spin  2
    eigenvalues: 
  0.980  0.980  0.997  0.997  0.997
    eigenvectors:
  0.750  0.250  0.000  0.000  0.000
  0.000  0.000  0.167  0.500  0.333
  0.000  0.000  0.667  0.000  0.333
  0.250  0.750  0.000  0.000  0.000
  0.000  0.000  0.167  0.500  0.333
    occupations:
  0.980  0.000  0.000  0.000  0.000
  0.000  0.997  0.000  0.000  0.000
  0.000  0.000  0.997  0.000  0.000
  0.000  0.000  0.000  0.980  0.000
  0.000  0.000  0.000  0.000  0.997
atomic mag. moment =    -1.198792
atom    7   Tr[ns(na)] (up, down, total) =   3.75362  4.95241  8.70602
   spin  1
    eigenvalues: 
  0.384  0.384  0.995  0.995  0.995
    eigenvectors:
  0.250  0.750  0.000  0.000  0.000
  0.000  0.000  0.667  0.000  0.333
  0.000  0.000  0.167  0.500  0.333
  0.750  0.250  0.000  0.000  0.000
  0.000  0.000  0.167  0.500  0.333
    occupations:
  0.384  0.001  0.001  0.000  0.001
  0.001  0.995  0.000  0.001  0.000
  0.001  0.000  0.995 -0.001  0.000
  0.000  0.001 -0.001  0.384  0.000
  0.001  0.000  0.000  0.000  0.995
   spin  2
    eigenvalues: 
  0.980  0.980  0.997  0.997  0.997
    eigenvectors:
  0.750  0.250  0.000  0.000  0.000
  0.000  0.000  0.667  0.000  0.333
  0.000  0.000  0.167  0.500  0.333
  0.250  0.750  0.000  0.000  0.000
  0.000  0.000  0.167  0.500  0.333
    occupations:
  0.980  0.000  0.000  0.000  0.000
  0.000  0.997  0.000  0.000  0.000
  0.000  0.000  0.997  0.000  0.000
  0.000  0.000  0.000  0.980  0.000
  0.000  0.000  0.000  0.000  0.997
atomic mag. moment =    -1.198792
atom    8   Tr[ns(na)] (up, down, total) =   3.75362  4.95241  8.70602
   spin  1
    eigenvalues: 
  0.384  0.384  0.995  0.995  0.995
    eigenvectors:
  1.000  0.000  0.000  0.000  0.000
  0.000  0.000  0.167  0.500  0.333
  0.000  0.000  0.167  0.500  0.333
  0.000  1.000  0.000  0.000  0.000
  0.000  0.000  0.667  0.000  0.333
    occupations:
  0.384  0.001  0.001  0.000  0.001
  0.001  0.995  0.000  0.001  0.000
  0.001  0.000  0.995 -0.001  0.000
  0.000  0.001 -0.001  0.384  0.000
  0.001  0.000  0.000  0.000  0.995
   spin  2
    eigenvalues: 
  0.980  0.980  0.997  0.997  0.997
    eigenvectors:
  0.000  1.000  0.000  0.000  0.000
  0.000  0.000  0.167  0.500  0.333
  0.000  0.000  0.167  0.500  0.333
  1.000  0.000  0.000  0.000  0.000
  0.000  0.000  0.667  0.000  0.333
    occupations:
  0.980  0.000  0.000  0.000  0.000
  0.000  0.997  0.000  0.000  0.000
  0.000  0.000  0.997  0.000  0.000
  0.000  0.000  0.000  0.980  0.000
  0.000  0.000  0.000  0.000  0.997
atomic mag. moment =    -1.198792
atom    9   Tr[ns(na)] (up, down, total) =   2.81114  2.81114  5.62228
   spin  1
    eigenvalues: 
  0.937  0.937  0.938
    eigenvectors:
  0.329  0.338  0.333
  0.624  0.043  0.333
  0.047  0.620  0.333
    occupations:
  0.937  0.000  0.000
  0.000  0.937  0.000
  0.000  0.000  0.937
   spin  2
    eigenvalues: 
  0.937  0.937  0.938
    eigenvectors:
  0.444  0.223  0.333
  0.551  0.116  0.333
  0.006  0.661  0.333
    occupations:
  0.937  0.000  0.000
  0.000  0.937  0.000
  0.000  0.000  0.937
atomic mag. moment =    -0.000001
atom   10   Tr[ns(na)] (up, down, total) =   2.81114  2.81114  5.62228
   spin  1
    eigenvalues: 
  0.937  0.937  0.938
    eigenvectors:
  0.667  0.000  0.333
  0.167  0.500  0.333
  0.167  0.500  0.333
    occupations:
  0.937  0.000  0.000
  0.000  0.937  0.000
  0.000  0.000  0.937
   spin  2
    eigenvalues: 
  0.937  0.937  0.938
    eigenvectors:
  0.667  0.000  0.333
  0.167  0.500  0.333
  0.167  0.500  0.333
    occupations:
  0.937  0.000  0.000
  0.000  0.937  0.000
  0.000  0.000  0.937
atomic mag. moment =     0.000000
atom   11   Tr[ns(na)] (up, down, total) =   2.81114  2.81114  5.62228
   spin  1
    eigenvalues: 
  0.937  0.937  0.938
    eigenvectors:
  0.167  0.500  0.333
  0.667  0.000  0.333
  0.167  0.500  0.333
    occupations:
  0.937  0.000  0.000
  0.000  0.937  0.000
  0.000  0.000  0.937
   spin  2
    eigenvalues: 
  0.937  0.937  0.938
    eigenvectors:
  0.167  0.500  0.333
  0.667  0.000  0.333
  0.167  0.500  0.333
    occupations:
  0.937  0.000  0.000
  0.000  0.937  0.000
  0.000  0.000  0.937
atomic mag. moment =     0.000000
atom   12   Tr[ns(na)] (up, down, total) =   2.81114  2.81114  5.62228
   spin  1
    eigenvalues: 
  0.937  0.937  0.938
    eigenvectors:
  0.167  0.500  0.333
  0.167  0.500  0.333
  0.667  0.000  0.333
    occupations:
  0.937  0.000  0.000
  0.000  0.937  0.000
  0.000  0.000  0.937
   spin  2
    eigenvalues: 
  0.937  0.937  0.938
    eigenvectors:
  0.167  0.500  0.333
  0.167  0.500  0.333
  0.667  0.000  0.333
    occupations:
  0.937  0.000  0.000
  0.000  0.937  0.000
  0.000  0.000  0.937
atomic mag. moment =     0.000000
atom   13   Tr[ns(na)] (up, down, total) =   2.81114  2.81114  5.62228
   spin  1
    eigenvalues: 
  0.937  0.937  0.938
    eigenvectors:
  0.167  0.500  0.333
  0.667  0.000  0.333
  0.167  0.500  0.333
    occupations:
  0.937  0.000  0.000
  0.000  0.937  0.000
  0.000  0.000  0.937
   spin  2
    eigenvalues: 
  0.937  0.937  0.938
    eigenvectors:
  0.167  0.500  0.333
  0.667  0.000  0.333
  0.167  0.500  0.333
    occupations:
  0.937  0.000  0.000
  0.000  0.937  0.000
  0.000  0.000  0.937
atomic mag. moment =     0.000000
atom   14   Tr[ns(na)] (up, down, total) =   2.81114  2.81114  5.62228
   spin  1
    eigenvalues: 
  0.937  0.937  0.938
    eigenvectors:
  0.167  0.500  0.333
  0.167  0.500  0.333
  0.667  0.000  0.333
    occupations:
  0.937  0.000  0.000
  0.000  0.937  0.000
  0.000  0.000  0.937
   spin  2
    eigenvalues: 
  0.937  0.937  0.938
    eigenvectors:
  0.167  0.500  0.333
  0.167  0.500  0.333
  0.667  0.000  0.333
    occupations:
  0.937  0.000  0.000
  0.000  0.937  0.000
  0.000  0.000  0.937
atomic mag. moment =     0.000000
atom   15   Tr[ns(na)] (up, down, total) =   2.81114  2.81114  5.62228
   spin  1
    eigenvalues: 
  0.937  0.937  0.938
    eigenvectors:
  0.667  0.000  0.333
  0.167  0.500  0.333
  0.167  0.500  0.333
    occupations:
  0.937  0.000  0.000
  0.000  0.937  0.000
  0.000  0.000  0.937
   spin  2
    eigenvalues: 
  0.937  0.937  0.938
    eigenvectors:
  0.667  0.000  0.333
  0.167  0.500  0.333
  0.167  0.500  0.333
    occupations:
  0.937  0.000  0.000
  0.000  0.937  0.000
  0.000  0.000  0.937
atomic mag. moment =     0.000000
atom   16   Tr[ns(na)] (up, down, total) =   2.81114  2.81114  5.62229
   spin  1
    eigenvalues: 
  0.937  0.937  0.938
    eigenvectors:
  0.459  0.207  0.333
  0.538  0.129  0.333
  0.003  0.664  0.333
    occupations:
  0.937  0.000  0.000
  0.000  0.937  0.000
  0.000  0.000  0.937
   spin  2
    eigenvalues: 
  0.937  0.937  0.938
    eigenvectors:
  0.422  0.245  0.333
  0.567  0.099  0.333
  0.011  0.656  0.333
    occupations:
  0.937  0.000  0.000
  0.000  0.937  0.000
  0.000  0.000  0.937
atomic mag. moment =     0.000000
N of occupied +U levels = 114.6264629
 --- exit write_ns ---
 Atomic wfc used for LDA+U Projector are NOT orthogonalized
     Starting wfc from file

     total cpu time spent up to now is       15.7 secs

     per-process dynamical memory:    86.3 Mb

     Self-consistent Calculation

     iteration #  1     ecut=    30.00 Ry     beta=0.30
     Davidson diagonalization with overlap
     c_bands:  1 eigenvalues not converged
     c_bands:  1 eigenvalues not converged
     ethr =  2.18E-11,  avg # of iterations = 14.2
 --- enter write_ns ---
 LDA+U parameters:
U( 1)     =  0.00000000
alpha( 1) =  0.00000000
U( 2)     =  0.00000000
alpha( 2) =  0.00000000
U( 3)     =  0.00000000
alpha( 3) =  0.15000000
U( 4)     =  0.00000000
alpha( 4) =  0.00000000
atom    1   Tr[ns(na)] (up, down, total) =   4.95240  3.75602  8.70842
   spin  1
    eigenvalues: 
  0.980  0.980  0.997  0.997  0.997
    eigenvectors:
  1.000  0.000  0.000  0.000  0.000
  0.000  0.000  0.500  0.174  0.326
  0.000  0.000  0.500  0.174  0.326
  0.000  1.000  0.000  0.000  0.000
  0.000  0.000  0.000  0.652  0.348
    occupations:
  0.980  0.000  0.000  0.000  0.000
  0.000  0.997  0.000  0.000  0.000
  0.000  0.000  0.997  0.000  0.000
  0.000  0.000  0.000  0.980  0.000
  0.000  0.000  0.000  0.000  0.997
   spin  2
    eigenvalues: 
  0.384  0.386  0.995  0.995  0.995
    eigenvectors:
  0.000  1.000  0.000  0.000  0.000
  0.000  0.000  0.500  0.176  0.324
  0.000  0.000  0.500  0.176  0.324
  1.000  0.000  0.000  0.000  0.000
  0.000  0.000  0.000  0.647  0.353
    occupations:
  0.386  0.001  0.001  0.000  0.001
  0.001  0.995  0.000  0.001  0.000
  0.001  0.000  0.995 -0.001  0.000
  0.000  0.001 -0.001  0.384  0.000
  0.001  0.000  0.000  0.000  0.995
atomic mag. moment =     1.196383
atom    2   Tr[ns(na)] (up, down, total) =   4.95240  3.75602  8.70842
   spin  1
    eigenvalues: 
  0.980  0.980  0.997  0.997  0.997
    eigenvectors:
  0.250  0.750  0.000  0.000  0.000
  0.000  0.000  0.000  0.652  0.348
  0.000  0.000  0.500  0.174  0.326
  0.750  0.250  0.000  0.000  0.000
  0.000  0.000  0.500  0.174  0.326
    occupations:
  0.980  0.000  0.000  0.000  0.000
  0.000  0.997  0.000  0.000  0.000
  0.000  0.000  0.997  0.000  0.000
  0.000  0.000  0.000  0.980  0.000
  0.000  0.000  0.000  0.000  0.997
   spin  2
    eigenvalues: 
  0.384  0.386  0.995  0.995  0.995
    eigenvectors:
  0.750  0.250  0.000  0.000  0.000
  0.000  0.000  0.000  0.647  0.353
  0.000  0.000  0.500  0.176  0.324
  0.250  0.750  0.000  0.000  0.000
  0.000  0.000  0.500  0.176  0.324
    occupations:
  0.385  0.001  0.001  0.001  0.001
  0.001  0.995  0.000  0.001  0.000
  0.001  0.000  0.995 -0.001  0.000
  0.001  0.001 -0.001  0.386  0.000
  0.001  0.000  0.000  0.000  0.995
atomic mag. moment =     1.196383
atom    3   Tr[ns(na)] (up, down, total) =   4.95240  3.75602  8.70842
   spin  1
    eigenvalues: 
  0.980  0.980  0.997  0.997  0.997
    eigenvectors:
  0.250  0.750  0.000  0.000  0.000
  0.000  0.000  0.500  0.174  0.326
  0.000  0.000  0.000  0.652  0.348
  0.750  0.250  0.000  0.000  0.000
  0.000  0.000  0.500  0.174  0.326
    occupations:
  0.980  0.000  0.000  0.000  0.000
  0.000  0.997  0.000  0.000  0.000
  0.000  0.000  0.997  0.000  0.000
  0.000  0.000  0.000  0.980  0.000
  0.000  0.000  0.000  0.000  0.997
   spin  2
    eigenvalues: 
  0.384  0.386  0.995  0.995  0.995
    eigenvectors:
  0.750  0.250  0.000  0.000  0.000
  0.000  0.000  0.500  0.176  0.324
  0.000  0.000  0.000  0.647  0.353
  0.250  0.750  0.000  0.000  0.000
  0.000  0.000  0.500  0.176  0.324
    occupations:
  0.385  0.001  0.001 -0.001  0.001
  0.001  0.995  0.000  0.001  0.000
  0.001  0.000  0.995 -0.001  0.000
 -0.001  0.001 -0.001  0.386  0.000
  0.001  0.000  0.000  0.000  0.995
atomic mag. moment =     1.196383
atom    4   Tr[ns(na)] (up, down, total) =   4.95241  3.75363  8.70604
   spin  1
    eigenvalues: 
  0.980  0.980  0.997  0.997  0.997
    eigenvectors:
  0.120  0.880  0.000  0.000  0.000
  0.000  0.000  0.185  0.482  0.333
  0.000  0.000  0.149  0.517  0.333
  0.880  0.120  0.000  0.000  0.000
  0.000  0.000  0.666  0.001  0.333
    occupations:
  0.980  0.000  0.000  0.000  0.000
  0.000  0.997  0.000  0.000  0.000
  0.000  0.000  0.997  0.000  0.000
  0.000  0.000  0.000  0.980  0.000
  0.000  0.000  0.000  0.000  0.997
   spin  2
    eigenvalues: 
  0.384  0.384  0.995  0.995  0.995
    eigenvectors:
  0.339  0.661  0.000  0.000  0.000
  0.000  0.000  0.170  0.497  0.333
  0.000  0.000  0.164  0.503  0.333
  0.661  0.339  0.000  0.000  0.000
  0.000  0.000  0.667  0.000  0.333
    occupations:
  0.384  0.001  0.001  0.000  0.001
  0.001  0.995  0.000  0.001  0.000
  0.001  0.000  0.995 -0.001  0.000
  0.000  0.001 -0.001  0.384  0.000
  0.001  0.000  0.000  0.000  0.995
atomic mag. moment =     1.198779
atom    5   Tr[ns(na)] (up, down, total) =   3.75366  4.95242  8.70607
   spin  1
    eigenvalues: 
  0.384  0.384  0.995  0.995  0.995
    eigenvectors:
  0.390  0.610  0.000  0.000  0.000
  0.000  0.000  0.187  0.479  0.333
  0.000  0.000  0.147  0.520  0.333
  0.610  0.390  0.000  0.000  0.000
  0.000  0.000  0.666  0.001  0.333
    occupations:
  0.384  0.001  0.001  0.000  0.001
  0.001  0.995  0.000  0.001  0.000
  0.001  0.000  0.995 -0.001  0.000
  0.000  0.001 -0.001  0.384  0.000
  0.001  0.000  0.000  0.000  0.995
   spin  2
    eigenvalues: 
  0.980  0.980  0.997  0.997  0.997
    eigenvectors:
  0.194  0.806  0.000  0.000  0.000
  0.000  0.000  0.129  0.537  0.333
  0.000  0.000  0.207  0.460  0.333
  0.806  0.194  0.000  0.000  0.000
  0.000  0.000  0.664  0.003  0.333
    occupations:
  0.980  0.000  0.000  0.000  0.000
  0.000  0.997  0.000  0.000  0.000
  0.000  0.000  0.997  0.000  0.000
  0.000  0.000  0.000  0.980  0.000
  0.000  0.000  0.000  0.000  0.997
atomic mag. moment =    -1.198759
atom    6   Tr[ns(na)] (up, down, total) =   3.75601  4.95240  8.70841
   spin  1
    eigenvalues: 
  0.384  0.386  0.995  0.995  0.995
    eigenvectors:
  0.750  0.250  0.000  0.000  0.000
  0.000  0.000  0.500  0.176  0.324
  0.000  0.000  0.000  0.648  0.352
  0.250  0.750  0.000  0.000  0.000
  0.000  0.000  0.500  0.176  0.324
    occupations:
  0.385  0.001  0.000 -0.001  0.001
  0.001  0.995  0.000  0.001  0.000
  0.000  0.000  0.995 -0.001  0.000
 -0.001  0.001 -0.001  0.386  0.000
  0.001  0.000  0.000  0.000  0.995
   spin  2
    eigenvalues: 
  0.980  0.980  0.997  0.997  0.997
    eigenvectors:
  0.250  0.750  0.000  0.000  0.000
  0.000  0.000  0.500  0.175  0.325
  0.000  0.000  0.000  0.650  0.350
  0.750  0.250  0.000  0.000  0.000
  0.000  0.000  0.500  0.175  0.325
    occupations:
  0.980  0.000  0.000  0.000  0.000
  0.000  0.997  0.000  0.000  0.000
  0.000  0.000  0.997  0.000  0.000
  0.000  0.000  0.000  0.980  0.000
  0.000  0.000  0.000  0.000  0.997
atomic mag. moment =    -1.196393
atom    7   Tr[ns(na)] (up, down, total) =   3.75601  4.95240  8.70841
   spin  1
    eigenvalues: 
  0.384  0.386  0.995  0.995  0.995
    eigenvectors:
  0.750  0.250  0.000  0.000  0.000
  0.000  0.000  0.000  0.648  0.352
  0.000  0.000  0.500  0.176  0.324
  0.250  0.750  0.000  0.000  0.000
  0.000  0.000  0.500  0.176  0.324
    occupations:
  0.385  0.000  0.001  0.001  0.001
  0.000  0.995  0.000  0.001  0.000
  0.001  0.000  0.995 -0.001  0.000
  0.001  0.001 -0.001  0.386  0.000
  0.001  0.000  0.000  0.000  0.995
   spin  2
    eigenvalues: 
  0.980  0.980  0.997  0.997  0.997
    eigenvectors:
  0.250  0.750  0.000  0.000  0.000
  0.000  0.000  0.000  0.650  0.350
  0.000  0.000  0.500  0.175  0.325
  0.750  0.250  0.000  0.000  0.000
  0.000  0.000  0.500  0.175  0.325
    occupations:
  0.980  0.000  0.000  0.000  0.000
  0.000  0.997  0.000  0.000  0.000
  0.000  0.000  0.997  0.000  0.000
  0.000  0.000  0.000  0.980  0.000
  0.000  0.000  0.000  0.000  0.997
atomic mag. moment =    -1.196393
atom    8   Tr[ns(na)] (up, down, total) =   3.75601  4.95240  8.70841
   spin  1
    eigenvalues: 
  0.384  0.386  0.995  0.995  0.995
    eigenvectors:
  0.000  1.000  0.000  0.000  0.000
  0.000  0.000  0.500  0.176  0.324
  0.000  0.000  0.500  0.176  0.324
  1.000  0.000  0.000  0.000  0.000
  0.000  0.000  0.000  0.648  0.352
    occupations:
  0.386  0.001  0.001  0.000  0.001
  0.001  0.995  0.000  0.001  0.000
  0.001  0.000  0.995 -0.001  0.000
  0.000  0.001 -0.001  0.384  0.000
  0.001  0.000  0.000  0.000  0.995
   spin  2
    eigenvalues: 
  0.980  0.980  0.997  0.997  0.997
    eigenvectors:
  1.000  0.000  0.000  0.000  0.000
  0.000  0.000  0.500  0.175  0.325
  0.000  0.000  0.500  0.175  0.325
  0.000  1.000  0.000  0.000  0.000
  0.000  0.000  0.000  0.650  0.350
    occupations:
  0.980  0.000  0.000  0.000  0.000
  0.000  0.997  0.000  0.000  0.000
  0.000  0.000  0.997  0.000  0.000
  0.000  0.000  0.000  0.980  0.000
  0.000  0.000  0.000  0.000  0.997
atomic mag. moment =    -1.196393
atom    9   Tr[ns(na)] (up, down, total) =   2.80422  2.80422  5.60844
   spin  1
    eigenvalues: 
  0.934  0.934  0.936
    eigenvectors:
  0.388  0.279  0.333
  0.591  0.076  0.333
  0.021  0.645  0.333
    occupations:
  0.935  0.000  0.000
  0.000  0.935  0.000
  0.000  0.000  0.935
   spin  2
    eigenvalues: 
  0.934  0.934  0.936
    eigenvectors:
  0.454  0.213  0.333
  0.542  0.124  0.333
  0.004  0.663  0.333
    occupations:
  0.935  0.000  0.000
  0.000  0.935  0.000
  0.000  0.000  0.935
atomic mag. moment =     0.000002
atom   10   Tr[ns(na)] (up, down, total) =   2.81116  2.81116  5.62232
   spin  1
    eigenvalues: 
  0.937  0.937  0.938
    eigenvectors:
  0.654  0.000  0.346
  0.173  0.500  0.327
  0.173  0.500  0.327
    occupations:
  0.937  0.000  0.000
  0.000  0.937  0.000
  0.000  0.000  0.937
   spin  2
    eigenvalues: 
  0.937  0.937  0.938
    eigenvectors:
  0.653  0.000  0.347
  0.173  0.500  0.327
  0.173  0.500  0.327
    occupations:
  0.937  0.000  0.000
  0.000  0.937  0.000
  0.000  0.000  0.937
atomic mag. moment =     0.000000
atom   11   Tr[ns(na)] (up, down, total) =   2.81116  2.81116  5.62232
   spin  1
    eigenvalues: 
  0.937  0.937  0.938
    eigenvectors:
  0.173  0.500  0.327
  0.654  0.000  0.346
  0.173  0.500  0.327
    occupations:
  0.937  0.000  0.000
  0.000  0.937  0.000
  0.000  0.000  0.937
   spin  2
    eigenvalues: 
  0.937  0.937  0.938
    eigenvectors:
  0.173  0.500  0.327
  0.653  0.000  0.347
  0.173  0.500  0.327
    occupations:
  0.937  0.000  0.000
  0.000  0.937  0.000
  0.000  0.000  0.937
atomic mag. moment =     0.000000
atom   12   Tr[ns(na)] (up, down, total) =   2.81116  2.81116  5.62232
   spin  1
    eigenvalues: 
  0.937  0.937  0.938
    eigenvectors:
  0.173  0.500  0.327
  0.173  0.500  0.327
  0.654  0.000  0.346
    occupations:
  0.937  0.000  0.000
  0.000  0.937  0.000
  0.000  0.000  0.937
   spin  2
    eigenvalues: 
  0.937  0.937  0.938
    eigenvectors:
  0.173  0.500  0.327
  0.173  0.500  0.327
  0.653  0.000  0.347
    occupations:
  0.937  0.000  0.000
  0.000  0.937  0.000
  0.000  0.000  0.937
atomic mag. moment =     0.000000
atom   13   Tr[ns(na)] (up, down, total) =   2.81114  2.81114  5.62228
   spin  1
    eigenvalues: 
  0.937  0.937  0.938
    eigenvectors:
  0.500  0.162  0.338
  0.000  0.677  0.323
  0.500  0.162  0.338
    occupations:
  0.937  0.000  0.000
  0.000  0.937  0.000
  0.000  0.000  0.937
   spin  2
    eigenvalues: 
  0.937  0.937  0.938
    eigenvectors:
  0.500  0.162  0.338
  0.000  0.676  0.324
  0.500  0.162  0.338
    occupations:
  0.937  0.000  0.000
  0.000  0.937  0.000
  0.000  0.000  0.937
atomic mag. moment =     0.000000
atom   14   Tr[ns(na)] (up, down, total) =   2.81114  2.81114  5.62228
   spin  1
    eigenvalues: 
  0.937  0.937  0.938
    eigenvectors:
  0.500  0.162  0.338
  0.500  0.162  0.338
  0.000  0.677  0.323
    occupations:
  0.937  0.000  0.000
  0.000  0.937  0.000
  0.000  0.000  0.937
   spin  2
    eigenvalues: 
  0.937  0.937  0.938
    eigenvectors:
  0.500  0.162  0.338
  0.500  0.162  0.338
  0.000  0.676  0.324
    occupations:
  0.937  0.000  0.000
  0.000  0.937  0.000
  0.000  0.000  0.937
atomic mag. moment =     0.000000
atom   15   Tr[ns(na)] (up, down, total) =   2.81114  2.81114  5.62228
   spin  1
    eigenvalues: 
  0.937  0.937  0.938
    eigenvectors:
  0.000  0.677  0.323
  0.500  0.162  0.338
  0.500  0.162  0.338
    occupations:
  0.937  0.000  0.000
  0.000  0.937  0.000
  0.000  0.000  0.937
   spin  2
    eigenvalues: 
  0.937  0.937  0.938
    eigenvectors:
  0.000  0.676  0.324
  0.500  0.162  0.338
  0.500  0.162  0.338
    occupations:
  0.937  0.000  0.000
  0.000  0.937  0.000
  0.000  0.000  0.937
atomic mag. moment =     0.000000
atom   16   Tr[ns(na)] (up, down, total) =   2.81172  2.81172  5.62345
   spin  1
    eigenvalues: 
  0.937  0.937  0.938
    eigenvectors:
  0.382  0.285  0.333
  0.595  0.072  0.333
  0.024  0.643  0.333
    occupations:
  0.937  0.000  0.000
  0.000  0.937  0.000
  0.000  0.000  0.937
   spin  2
    eigenvalues: 
  0.937  0.937  0.938
    eigenvectors:
  0.414  0.253  0.333
  0.573  0.093  0.333
  0.013  0.654  0.333
    occupations:
  0.937  0.000  0.000
  0.000  0.937  0.000
  0.000  0.000  0.937
atomic mag. moment =     0.000002
N of occupied +U levels = 114.6282821
 --- exit write_ns ---

     total cpu time spent up to now is       84.1 secs

     total energy              =    -941.95407667 Ry
     Harris-Foulkes estimate   =    -941.95419185 Ry
     estimated scf accuracy    <       0.00025398 Ry

     total magnetization       =     0.00 Bohr mag/cell
     absolute magnetization    =    12.28 Bohr mag/cell

     iteration #  2     ecut=    30.00 Ry     beta=0.30
     Davidson diagonalization with overlap
     ethr =  1.98E-07,  avg # of iterations =  2.0

     total cpu time spent up to now is      121.4 secs

     total energy              =    -941.95413615 Ry
     Harris-Foulkes estimate   =    -941.95415700 Ry
     estimated scf accuracy    <       0.00006352 Ry

     total magnetization       =     0.00 Bohr mag/cell
     absolute magnetization    =    12.29 Bohr mag/cell

     iteration #  3     ecut=    30.00 Ry     beta=0.30
     Davidson diagonalization with overlap
     ethr =  4.96E-08,  avg # of iterations =  2.0

     total cpu time spent up to now is      158.2 secs

     total energy              =    -941.95414559 Ry
     Harris-Foulkes estimate   =    -941.95414574 Ry
     estimated scf accuracy    <       0.00000088 Ry

     total magnetization       =     0.00 Bohr mag/cell
     absolute magnetization    =    12.28 Bohr mag/cell

     iteration #  4     ecut=    30.00 Ry     beta=0.30
     Davidson diagonalization with overlap
     ethr =  6.88E-10,  avg # of iterations =  2.0

     total cpu time spent up to now is      195.6 secs

     total energy              =    -941.95414570 Ry
     Harris-Foulkes estimate   =    -941.95414572 Ry
     estimated scf accuracy    <       0.00000034 Ry

     total magnetization       =     0.00 Bohr mag/cell
     absolute magnetization    =    12.28 Bohr mag/cell

     iteration #  5     ecut=    30.00 Ry     beta=0.30
     Davidson diagonalization with overlap
     ethr =  2.62E-10,  avg # of iterations =  1.3

     total cpu time spent up to now is      231.4 secs

     total energy              =    -941.95414573 Ry
     Harris-Foulkes estimate   =    -941.95414572 Ry
     estimated scf accuracy    <       0.00000005 Ry

     total magnetization       =     0.00 Bohr mag/cell
     absolute magnetization    =    12.28 Bohr mag/cell

     iteration #  6     ecut=    30.00 Ry     beta=0.30
     Davidson diagonalization with overlap
     ethr =  3.83E-11,  avg # of iterations =  1.9

     total cpu time spent up to now is      268.1 secs

     total energy              =    -941.95414574 Ry
     Harris-Foulkes estimate   =    -941.95414574 Ry
     estimated scf accuracy    <       0.00000002 Ry

     total magnetization       =     0.00 Bohr mag/cell
     absolute magnetization    =    12.28 Bohr mag/cell

     iteration #  7     ecut=    30.00 Ry     beta=0.30
     Davidson diagonalization with overlap
     ethr =  1.84E-11,  avg # of iterations =  1.4

     total cpu time spent up to now is      303.4 secs

     End of self-consistent calculation
 --- enter write_ns ---
 LDA+U parameters:
U( 1)     =  0.00000000
alpha( 1) =  0.00000000
U( 2)     =  0.00000000
alpha( 2) =  0.00000000
U( 3)     =  0.00000000
alpha( 3) =  0.15000000
U( 4)     =  0.00000000
alpha( 4) =  0.00000000
atom    1   Tr[ns(na)] (up, down, total) =   4.95239  3.75471  8.70710
   spin  1
    eigenvalues: 
  0.980  0.980  0.997  0.997  0.997
    eigenvectors:
  1.000  0.000  0.000  0.000  0.000
  0.000  0.000  0.143  0.500  0.357
  0.000  0.000  0.143  0.500  0.357
  0.000  1.000  0.000  0.000  0.000
  0.000  0.000  0.715  0.000  0.285
    occupations:
  0.980  0.000  0.000  0.000  0.000
  0.000  0.997  0.000  0.000  0.000
  0.000  0.000  0.997  0.000  0.000
  0.000  0.000  0.000  0.980  0.000
  0.000  0.000  0.000  0.000  0.997
   spin  2
    eigenvalues: 
  0.384  0.385  0.995  0.995  0.995
    eigenvectors:
  0.000  1.000  0.000  0.000  0.000
  0.000  0.000  0.166  0.500  0.334
  0.000  0.000  0.166  0.500  0.334
  1.000  0.000  0.000  0.000  0.000
  0.000  0.000  0.667  0.000  0.333
    occupations:
  0.385  0.001  0.001  0.000  0.001
  0.001  0.995  0.000  0.001  0.000
  0.001  0.000  0.995 -0.001  0.000
  0.000  0.001 -0.001  0.384  0.000
  0.001  0.000  0.000  0.000  0.995
atomic mag. moment =     1.197685
atom    2   Tr[ns(na)] (up, down, total) =   4.95239  3.75471  8.70710
   spin  1
    eigenvalues: 
  0.980  0.980  0.997  0.997  0.997
    eigenvectors:
  0.250  0.750  0.000  0.000  0.000
  0.000  0.000  0.715  0.000  0.285
  0.000  0.000  0.143  0.500  0.357
  0.750  0.250  0.000  0.000  0.000
  0.000  0.000  0.143  0.500  0.357
    occupations:
  0.980  0.000  0.000  0.000  0.000
  0.000  0.997  0.000  0.000  0.000
  0.000  0.000  0.997  0.000  0.000
  0.000  0.000  0.000  0.980  0.000
  0.000  0.000  0.000  0.000  0.997
   spin  2
    eigenvalues: 
  0.384  0.385  0.995  0.995  0.995
    eigenvectors:
  0.750  0.250  0.000  0.000  0.000
  0.000  0.000  0.667  0.000  0.333
  0.000  0.000  0.166  0.500  0.334
  0.250  0.750  0.000  0.000  0.000
  0.000  0.000  0.166  0.500  0.334
    occupations:
  0.384  0.001  0.001  0.000  0.001
  0.001  0.995  0.000  0.001  0.000
  0.001  0.000  0.995 -0.001  0.000
  0.000  0.001 -0.001  0.385  0.000
  0.001  0.000  0.000  0.000  0.995
atomic mag. moment =     1.197685
atom    3   Tr[ns(na)] (up, down, total) =   4.95239  3.75471  8.70710
   spin  1
    eigenvalues: 
  0.980  0.980  0.997  0.997  0.997
    eigenvectors:
  0.250  0.750  0.000  0.000  0.000
  0.000  0.000  0.143  0.500  0.357
  0.000  0.000  0.715  0.000  0.285
  0.750  0.250  0.000  0.000  0.000
  0.000  0.000  0.143  0.500  0.357
    occupations:
  0.980  0.000  0.000  0.000  0.000
  0.000  0.997  0.000  0.000  0.000
  0.000  0.000  0.997  0.000  0.000
  0.000  0.000  0.000  0.980  0.000
  0.000  0.000  0.000  0.000  0.997
   spin  2
    eigenvalues: 
  0.384  0.385  0.995  0.995  0.995
    eigenvectors:
  0.750  0.250  0.000  0.000  0.000
  0.000  0.000  0.166  0.500  0.334
  0.000  0.000  0.667  0.000  0.333
  0.250  0.750  0.000  0.000  0.000
  0.000  0.000  0.166  0.500  0.334
    occupations:
  0.384  0.001  0.001  0.000  0.001
  0.001  0.995  0.000  0.001  0.000
  0.001  0.000  0.995 -0.001  0.000
  0.000  0.001 -0.001  0.385  0.000
  0.001  0.000  0.000  0.000  0.995
atomic mag. moment =     1.197685
atom    4   Tr[ns(na)] (up, down, total) =   4.95241  3.75357  8.70598
   spin  1
    eigenvalues: 
  0.980  0.980  0.997  0.997  0.997
    eigenvectors:
  0.217  0.783  0.000  0.000  0.000
  0.000  0.000  0.104  0.562  0.333
  0.000  0.000  0.238  0.429  0.333
  0.783  0.217  0.000  0.000  0.000
  0.000  0.000  0.658  0.009  0.333
    occupations:
  0.980  0.000  0.000  0.000  0.000
  0.000  0.997  0.000  0.000  0.000
  0.000  0.000  0.997  0.000  0.000
  0.000  0.000  0.000  0.980  0.000
  0.000  0.000  0.000  0.000  0.997
   spin  2
    eigenvalues: 
  0.384  0.384  0.995  0.995  0.995
    eigenvectors:
  0.062  0.938  0.000  0.000  0.000
  0.000  0.000  0.079  0.588  0.333
  0.000  0.000  0.274  0.392  0.333
  0.938  0.062  0.000  0.000  0.000
  0.000  0.000  0.647  0.020  0.333
    occupations:
  0.384  0.001  0.001  0.000  0.001
  0.001  0.995  0.000  0.001  0.000
  0.001  0.000  0.995 -0.001  0.000
  0.000  0.001 -0.001  0.384  0.000
  0.001  0.000  0.000  0.000  0.995
atomic mag. moment =     1.198839
atom    5   Tr[ns(na)] (up, down, total) =   3.75360  4.95242  8.70602
   spin  1
    eigenvalues: 
  0.384  0.384  0.995  0.995  0.995
    eigenvectors:
  0.194  0.806  0.000  0.000  0.000
  0.000  0.000  0.088  0.579  0.333
  0.000  0.000  0.261  0.406  0.333
  0.806  0.194  0.000  0.000  0.000
  0.000  0.000  0.651  0.015  0.333
    occupations:
  0.384  0.001  0.001  0.000  0.001
  0.001  0.995  0.000  0.001  0.000
  0.001  0.000  0.995 -0.001  0.000
  0.000  0.001 -0.001  0.384  0.000
  0.001  0.000  0.000  0.000  0.995
   spin  2
    eigenvalues: 
  0.980  0.980  0.997  0.997  0.997
    eigenvectors:
  0.248  0.752  0.000  0.000  0.000
  0.000  0.000  0.089  0.578  0.333
  0.000  0.000  0.259  0.408  0.333
  0.752  0.248  0.000  0.000  0.000
  0.000  0.000  0.652  0.015  0.333
    occupations:
  0.980  0.000  0.000  0.000  0.000
  0.000  0.997  0.000  0.000  0.000
  0.000  0.000  0.997  0.000  0.000
  0.000  0.000  0.000  0.980  0.000
  0.000  0.000  0.000  0.000  0.997
atomic mag. moment =    -1.198811
atom    6   Tr[ns(na)] (up, down, total) =   3.75469  4.95239  8.70708
   spin  1
    eigenvalues: 
  0.384  0.385  0.995  0.995  0.995
    eigenvectors:
  0.750  0.250  0.000  0.000  0.000
  0.000  0.000  0.166  0.500  0.334
  0.000  0.000  0.668  0.000  0.332
  0.250  0.750  0.000  0.000  0.000
  0.000  0.000  0.166  0.500  0.334
    occupations:
  0.384  0.001  0.001  0.000  0.001
  0.001  0.995  0.000  0.001  0.000
  0.001  0.000  0.995 -0.001  0.000
  0.000  0.001 -0.001  0.385  0.000
  0.001  0.000  0.000  0.000  0.995
   spin  2
    eigenvalues: 
  0.980  0.980  0.997  0.997  0.997
    eigenvectors:
  0.250  0.750  0.000  0.000  0.000
  0.000  0.000  0.144  0.500  0.356
  0.000  0.000  0.713  0.000  0.287
  0.750  0.250  0.000  0.000  0.000
  0.000  0.000  0.144  0.500  0.356
    occupations:
  0.980  0.000  0.000  0.000  0.000
  0.000  0.997  0.000  0.000  0.000
  0.000  0.000  0.997  0.000  0.000
  0.000  0.000  0.000  0.980  0.000
  0.000  0.000  0.000  0.000  0.997
atomic mag. moment =    -1.197697
atom    7   Tr[ns(na)] (up, down, total) =   3.75469  4.95239  8.70708
   spin  1
    eigenvalues: 
  0.384  0.385  0.995  0.995  0.995
    eigenvectors:
  0.750  0.250  0.000  0.000  0.000
  0.000  0.000  0.668  0.000  0.332
  0.000  0.000  0.166  0.500  0.334
  0.250  0.750  0.000  0.000  0.000
  0.000  0.000  0.166  0.500  0.334
    occupations:
  0.384  0.001  0.001  0.000  0.001
  0.001  0.995  0.000  0.001  0.000
  0.001  0.000  0.995 -0.001  0.000
  0.000  0.001 -0.001  0.385  0.000
  0.001  0.000  0.000  0.000  0.995
   spin  2
    eigenvalues: 
  0.980  0.980  0.997  0.997  0.997
    eigenvectors:
  0.250  0.750  0.000  0.000  0.000
  0.000  0.000  0.713  0.000  0.287
  0.000  0.000  0.144  0.500  0.356
  0.750  0.250  0.000  0.000  0.000
  0.000  0.000  0.144  0.500  0.356
    occupations:
  0.980  0.000  0.000  0.000  0.000
  0.000  0.997  0.000  0.000  0.000
  0.000  0.000  0.997  0.000  0.000
  0.000  0.000  0.000  0.980  0.000
  0.000  0.000  0.000  0.000  0.997
atomic mag. moment =    -1.197697
atom    8   Tr[ns(na)] (up, down, total) =   3.75469  4.95239  8.70708
   spin  1
    eigenvalues: 
  0.384  0.385  0.995  0.995  0.995
    eigenvectors:
  0.000  1.000  0.000  0.000  0.000
  0.000  0.000  0.166  0.500  0.334
  0.000  0.000  0.166  0.500  0.334
  1.000  0.000  0.000  0.000  0.000
  0.000  0.000  0.668  0.000  0.332
    occupations:
  0.385  0.001  0.001  0.000  0.001
  0.001  0.995  0.000  0.001  0.000
  0.001  0.000  0.995 -0.001  0.000
  0.000  0.001 -0.001  0.384  0.000
  0.001  0.000  0.000  0.000  0.995
   spin  2
    eigenvalues: 
  0.980  0.980  0.997  0.997  0.997
    eigenvectors:
  1.000  0.000  0.000  0.000  0.000
  0.000  0.000  0.144  0.500  0.356
  0.000  0.000  0.144  0.500  0.356
  0.000  1.000  0.000  0.000  0.000
  0.000  0.000  0.713  0.000  0.287
    occupations:
  0.980  0.000  0.000  0.000  0.000
  0.000  0.997  0.000  0.000  0.000
  0.000  0.000  0.997  0.000  0.000
  0.000  0.000  0.000  0.980  0.000
  0.000  0.000  0.000  0.000  0.997
atomic mag. moment =    -1.197697
atom    9   Tr[ns(na)] (up, down, total) =   2.80847  2.80847  5.61693
   spin  1
    eigenvalues: 
  0.936  0.936  0.937
    eigenvectors:
  0.532  0.134  0.333
  0.465  0.201  0.333
  0.002  0.664  0.333
    occupations:
  0.936  0.000  0.000
  0.000  0.936  0.000
  0.000  0.000  0.936
   spin  2
    eigenvalues: 
  0.936  0.936  0.937
    eigenvectors:
  0.361  0.306  0.333
  0.607  0.059  0.333
  0.032  0.635  0.333
    occupations:
  0.936  0.000  0.000
  0.000  0.936  0.000
  0.000  0.000  0.936
atomic mag. moment =     0.000003
atom   10   Tr[ns(na)] (up, down, total) =   2.81117  2.81117  5.62235
   spin  1
    eigenvalues: 
  0.937  0.937  0.938
    eigenvectors:
  0.664  0.000  0.336
  0.168  0.500  0.332
  0.168  0.500  0.332
    occupations:
  0.937  0.000  0.000
  0.000  0.937  0.000
  0.000  0.000  0.937
   spin  2
    eigenvalues: 
  0.937  0.937  0.938
    eigenvectors:
  0.663  0.000  0.337
  0.169  0.500  0.331
  0.169  0.500  0.331
    occupations:
  0.937  0.000  0.000
  0.000  0.937  0.000
  0.000  0.000  0.937
atomic mag. moment =     0.000000
atom   11   Tr[ns(na)] (up, down, total) =   2.81117  2.81117  5.62235
   spin  1
    eigenvalues: 
  0.937  0.937  0.938
    eigenvectors:
  0.168  0.500  0.332
  0.664  0.000  0.336
  0.168  0.500  0.332
    occupations:
  0.937  0.000  0.000
  0.000  0.937  0.000
  0.000  0.000  0.937
   spin  2
    eigenvalues: 
  0.937  0.937  0.938
    eigenvectors:
  0.169  0.500  0.331
  0.663  0.000  0.337
  0.169  0.500  0.331
    occupations:
  0.937  0.000  0.000
  0.000  0.937  0.000
  0.000  0.000  0.937
atomic mag. moment =     0.000000
atom   12   Tr[ns(na)] (up, down, total) =   2.81117  2.81117  5.62235
   spin  1
    eigenvalues: 
  0.937  0.937  0.938
    eigenvectors:
  0.168  0.500  0.332
  0.168  0.500  0.332
  0.664  0.000  0.336
    occupations:
  0.937  0.000  0.000
  0.000  0.937  0.000
  0.000  0.000  0.937
   spin  2
    eigenvalues: 
  0.937  0.937  0.938
    eigenvectors:
  0.169  0.500  0.331
  0.169  0.500  0.331
  0.663  0.000  0.337
    occupations:
  0.937  0.000  0.000
  0.000  0.937  0.000
  0.000  0.000  0.937
atomic mag. moment =     0.000000
atom   13   Tr[ns(na)] (up, down, total) =   2.81117  2.81117  5.62235
   spin  1
    eigenvalues: 
  0.937  0.937  0.938
    eigenvectors:
  0.500  0.163  0.337
  0.000  0.674  0.326
  0.500  0.163  0.337
    occupations:
  0.937  0.000  0.000
  0.000  0.937  0.000
  0.000  0.000  0.937
   spin  2
    eigenvalues: 
  0.937  0.937  0.938
    eigenvectors:
  0.500  0.163  0.337
  0.000  0.673  0.327
  0.500  0.163  0.337
    occupations:
  0.937  0.000  0.000
  0.000  0.937  0.000
  0.000  0.000  0.937
atomic mag. moment =     0.000000
atom   14   Tr[ns(na)] (up, down, total) =   2.81117  2.81117  5.62235
   spin  1
    eigenvalues: 
  0.937  0.937  0.938
    eigenvectors:
  0.500  0.163  0.337
  0.500  0.163  0.337
  0.000  0.674  0.326
    occupations:
  0.937  0.000  0.000
  0.000  0.937  0.000
  0.000  0.000  0.937
   spin  2
    eigenvalues: 
  0.937  0.937  0.938
    eigenvectors:
  0.500  0.163  0.337
  0.500  0.163  0.337
  0.000  0.673  0.327
    occupations:
  0.937  0.000  0.000
  0.000  0.937  0.000
  0.000  0.000  0.937
atomic mag. moment =     0.000000
atom   15   Tr[ns(na)] (up, down, total) =   2.81117  2.81117  5.62235
   spin  1
    eigenvalues: 
  0.937  0.937  0.938
    eigenvectors:
  0.000  0.674  0.326
  0.500  0.163  0.337
  0.500  0.163  0.337
    occupations:
  0.937  0.000  0.000
  0.000  0.937  0.000
  0.000  0.000  0.937
   spin  2
    eigenvalues: 
  0.937  0.937  0.938
    eigenvectors:
  0.000  0.673  0.327
  0.500  0.163  0.337
  0.500  0.163  0.337
    occupations:
  0.937  0.000  0.000
  0.000  0.937  0.000
  0.000  0.000  0.937
atomic mag. moment =     0.000000
atom   16   Tr[ns(na)] (up, down, total) =   2.81111  2.81111  5.62223
   spin  1
    eigenvalues: 
  0.937  0.937  0.938
    eigenvectors:
  0.413  0.254  0.333
  0.574  0.093  0.333
  0.013  0.654  0.333
    occupations:
  0.937  0.000  0.000
  0.000  0.937  0.000
  0.000  0.000  0.937
   spin  2
    eigenvalues: 
  0.937  0.937  0.938
    eigenvectors:
  0.433  0.234  0.333
  0.559  0.107  0.333
  0.008  0.659  0.333
    occupations:
  0.937  0.000  0.000
  0.000  0.937  0.000
  0.000  0.000  0.937
atomic mag. moment =     0.000003
N of occupied +U levels = 114.6277906
 --- exit write_ns ---

 ------ SPIN UP ------------


          k = 0.0000 0.0000 0.0000 (  2733 PWs)   bands (ev):

    -8.0829  -6.7197  -6.6856  -6.6853  -6.6853  -6.6287  -6.6169  -6.6169
     4.0311   4.0523   4.0523   4.0561   5.3459   5.3460   5.3460   6.5269
     6.5269   6.5339   6.5507   6.5507   6.5684   6.5684   6.5886   7.9545
     7.9574   7.9574   7.9787   7.9787   7.9817   8.8341   8.8341   8.8341
     9.2665   9.2665   9.2737   9.5623   9.5623   9.6974   9.8800   9.8800
     9.9468   9.9472   9.9472  10.2319  10.2319  10.2322  10.4893  10.4893
    10.4893  10.6032  10.6033  10.6033  10.9143  10.9143  11.0423  11.0423
    11.0438  11.1823  11.2663  11.2663  11.2671  11.3854  11.3864  11.3864
    13.5474  13.5474  13.6064  13.6065  13.6065  13.6903  13.6903  13.6910
    13.7584  17.7944  17.7988  17.8004  17.8004

          k =-0.1250 0.1250 0.1250 (  2743 PWs)   bands (ev):

    -7.9070  -6.9317  -6.7064  -6.6791  -6.6790  -6.6412  -6.6302  -6.6301
     4.3529   4.3701   4.3735   4.6206   5.3560   5.3626   5.3641   6.4374
     6.4446   6.4658   6.6387   6.6778   6.6868   6.7062   6.7492   7.1995
     7.2105   7.2492   7.6906   7.7040   7.7141   7.9768   8.4084   8.4164
     9.2834   9.3399   9.3412   9.6805   9.8265   9.9642  10.0454  10.0460
    10.1139  10.2222  10.2222  10.2511  10.3774  10.5240  10.5431  10.5452
    10.5547  10.6388  10.6905  10.6919  10.9005  10.9962  11.1173  11.1189
    11.1211  11.1810  11.2612  11.2616  11.2831  11.3163  11.3447  11.3458
    13.2145  13.2808  13.2808  13.2949  13.3849  13.4225  13.4226  13.4668
    14.7655  17.5928  18.6749  18.6780  18.6789

          k = 0.2500-0.2500-0.2500 (  2764 PWs)   bands (ev):

    -7.4576  -7.4410  -6.6999  -6.6622  -6.6600  -6.6574  -6.6543  -6.6538
     5.0541   5.0608   5.0669   5.0718   5.1086   5.1086   6.0934   6.1141
     6.3249   6.3398   6.3911   6.4094   6.4654   6.4940   6.8562   6.8724
     7.0177   7.0306   7.3189   7.3271   7.4894   7.5022   7.6376   7.6564
     9.6356   9.6364   9.8206   9.8206   9.8900   9.8914  10.0257  10.0261
    10.1616  10.1631  10.2249  10.2253  10.5356  10.5382  10.6449  10.6476
    10.6611  10.6627  10.8731  10.8746  10.9668  10.9685  11.2463  11.2482
    11.2550  11.2570  11.2997  11.3018  11.3317  11.3332  11.4347  11.4380
    13.0397  13.0405  13.0461  13.0467  13.0543  13.0543  13.0647  13.0651
    16.4797  16.4830  19.6520  19.6521  19.7110

          k = 0.0000 0.0000 0.2500 (  2706 PWs)   bands (ev):

    -7.8537  -6.8171  -6.7721  -6.7500  -6.7494  -6.7493  -6.5743  -6.5635
     4.4927   4.5063   4.5154   4.5188   5.2477   5.5359   5.5360   6.5304
     6.5368   6.5628   6.5879   6.6073   6.6212   6.6378   6.6911   7.0718
     7.0725   7.1694   7.1889   7.4720   7.9813   7.9865   8.6585   8.6677
     8.9567   9.5357   9.6310   9.6310   9.8164   9.9817  10.0586  10.0591
    10.0991  10.1138  10.1886  10.2807  10.2807  10.3992  10.4136  10.5464
    10.5482  10.6158  10.6163  10.6612  10.9131  11.0101  11.0111  11.0518
    11.0579  11.1713  11.2436  11.2956  11.2966  11.3481  11.3495  11.3806
    12.8784  13.0394  13.0399  13.0429  13.5247  13.5679  13.6450  13.6458
    15.2124  18.5639  18.5672  18.5677  18.5686

          k = 0.3750-0.3750-0.1250 (  2734 PWs)   bands (ev):

    -7.5042  -7.1739  -6.9693  -6.7805  -6.7662  -6.6004  -6.5614  -6.5521
     4.9685   4.9820   4.9971   5.3194   5.4362   5.5121   5.5350   6.1820
     6.2189   6.2464   6.2804   6.5891   6.6097   6.7508   6.7604   6.8676
     6.8992   6.9338   7.0026   7.3656   7.3852   7.7282   7.7688   8.0230
     9.4578   9.6525   9.8240   9.8969   9.9574   9.9702  10.0388  10.1401
    10.1429  10.1708  10.2123  10.2896  10.3179  10.3246  10.4796  10.5136
    10.7346  10.7407  10.7441  10.7571  10.8797  10.9072  11.0409  11.0790
    11.1691  11.1965  11.2269  11.2582  11.3335  11.3370  11.3551  11.4115
    12.7388  12.7825  12.8348  12.9310  13.2361  13.2591  13.3648  13.4337
    16.6930  17.6007  18.6694  19.3612  19.3629

          k = 0.2500-0.2500 0.0000 (  2742 PWs)   bands (ev):

    -7.6420  -7.0264  -7.0118  -6.7306  -6.7157  -6.6111  -6.5989  -6.5472
     4.7818   4.7928   5.0772   5.0847   5.2704   5.2851   5.7145   5.9749
     6.2906   6.3169   6.5357   6.7270   6.7497   6.7587   6.9147   6.9273
     6.9437   7.1585   7.1793   7.1987   7.4517   7.4689   7.6393   8.1312
     9.6597   9.6613   9.7913   9.8511   9.9067   9.9081  10.0466  10.1137
    10.1363  10.2283  10.2311  10.2312  10.2325  10.3640  10.3649  10.5182
    10.7213  10.7527  10.7537  10.8304  10.9043  11.0968  11.0982  11.1157
    11.2100  11.2113  11.2331  11.2445  11.2814  11.3466  11.4066  11.4078
    13.0425  13.0470  13.0577  13.0582  13.1148  13.1518  13.1523  13.2841
    16.0063  18.0596  18.0604  19.3769  19.3781

          k = 0.0000 0.0000-0.5000 (  2762 PWs)   bands (ev):

    -7.3205  -7.3049  -6.8391  -6.8126  -6.8117  -6.8115  -6.5211  -6.5092
     5.0202   5.0266   5.0464   5.0542   5.7701   5.7920   6.0997   6.1054
     6.1251   6.1312   6.4044   6.4235   6.6514   6.6699   6.6837   6.7023
     6.7227   6.7262   6.7293   6.7725   8.1494   8.1606   8.1681   8.1793
     9.2507   9.2515   9.9521   9.9532  10.0329  10.0335  10.0479  10.0480
    10.0498  10.0534  10.1719  10.1722  10.3523  10.3528  10.4978  10.4995
    10.5199  10.5231  10.5851  10.5855  10.9134  10.9135  11.0059  11.0076
    11.1498  11.1505  11.2277  11.2294  11.3370  11.3385  11.3422  11.3432
    12.4616  12.4623  12.7203  12.7207  13.5181  13.5193  13.6180  13.6189
    17.6654  17.6659  19.2492  19.2502  19.2530

          k = 0.0000 0.2500-0.5000 (  2740 PWs)   bands (ev):

    -7.1758  -7.1463  -7.1459  -7.1451  -6.6007  -6.5756  -6.5727  -6.5700
     5.2850   5.2893   5.3051   5.3440   5.3928   5.5557   5.5569   5.6673
     6.2317   6.2621   6.2697   6.3022   6.6268   6.6325   6.6438   6.7715
     6.9095   7.2702   7.2836   7.4689   7.4872   7.5129   7.5181   7.5682
     9.7133   9.7404   9.7410   9.8089   9.9890  10.0390  10.0411  10.0717
    10.1203  10.2740  10.2901  10.2917  10.3467  10.3479  10.4016  10.4669
    10.6188  10.6654  10.6660  10.6928  10.9489  10.9502  10.9700  10.9916
    11.1757  11.1863  11.1883  11.2812  11.2965  11.3010  11.3669  11.3677
    12.7747  12.8896  12.8899  13.0034  13.1552  13.1989  13.1998  13.2441
    18.0159  18.0333  18.0364  18.0553  20.8581

          k = 0.1250 0.1250 0.1250 (  2743 PWs)   bands (ev):

    -7.9071  -6.9319  -6.7070  -6.6798  -6.6798  -6.6404  -6.6292  -6.6292
     4.3507   4.3693   4.3693   4.6257   5.3544   5.3614   5.3614   6.4808
     6.4808   6.5044   6.6229   6.6344   6.6344   6.7069   6.7069   7.2163
     7.2163   7.2388   7.7059   7.7222   7.7222   7.9830   8.4608   8.4608
     9.2645   9.2645   9.2655   9.6208   9.6208  10.0051  10.0683  10.0683
    10.0683  10.2786  10.2786  10.2798  10.6054  10.6059  10.6059  10.6260
    10.6260  10.7262  10.7279  10.7279  10.9173  10.9173  10.9425  10.9425
    10.9453  11.0354  11.2586  11.2586  11.2594  11.3958  11.3968  11.3968
    13.3355  13.3355  13.3518  13.3518  13.3518  13.3589  13.3589  13.3590
    14.7658  17.5943  18.6726  18.6759  18.6759

          k =-0.2500-0.2500-0.2500 (  2764 PWs)   bands (ev):

    -7.4588  -7.4400  -6.7018  -6.6681  -6.6681  -6.6534  -6.6478  -6.6478
     5.0115   5.0293   5.0293   5.1124   5.1392   5.1392   6.0866   6.1304
     6.2607   6.2607   6.2934   6.6908   6.6908   6.7284   6.7511   6.7635
     6.7635   6.9883   6.9883   7.4473   7.4629   7.4629   7.8735   7.8735
     9.4934   9.4936   9.4936   9.6767   9.6767  10.1196  10.1239  10.1239
    10.1244  10.4512  10.4512  10.4519  10.5100  10.5104  10.5104  10.7288
    10.7288  10.8452  10.8452  10.8502  10.8733  11.0588  11.0620  11.0620
    11.2468  11.2468  11.2477  11.3049  11.3049  11.4035  11.4046  11.4046
    13.0412  13.0412  13.0415  13.0579  13.0579  13.0721  13.0726  13.0726
    16.4084  16.5584  19.6303  19.6304  19.6304

          k =-0.3750-0.3750-0.1250 (  2734 PWs)   bands (ev):

    -7.5043  -7.1740  -6.9693  -6.7806  -6.7663  -6.6002  -6.5613  -6.5519
     4.9703   4.9820   4.9977   5.2974   5.4503   5.5089   5.5178   6.2258
     6.2274   6.2468   6.2831   6.6590   6.6740   6.6803   6.6973   6.7195
     6.8374   7.0842   7.0963   7.2790   7.3899   7.7619   7.7706   8.0596
     9.3555   9.5458   9.7628   9.7629   9.7868  10.0624  10.0986  10.0987
    10.2892  10.2913  10.4230  10.4236  10.4446  10.5558  10.5564  10.5622
    10.5723  10.6520  10.6539  10.6546  10.8440  10.8825  10.8844  10.9617
    11.0738  11.2455  11.2764  11.3032  11.3034  11.3616  11.3624  11.4249
    12.6940  12.8398  12.8851  12.8855  13.2819  13.3365  13.3436  13.3441
    16.6924  17.6033  18.6689  19.3585  19.3589

          k = 0.3750 0.3750-0.1250 (  2734 PWs)   bands (ev):

    -7.5041  -7.1739  -6.9693  -6.7804  -6.7661  -6.6005  -6.5615  -6.5522
     4.9731   4.9863   4.9984   5.2571   5.5059   5.5189   5.5229   6.1316
     6.2294   6.2502   6.3572   6.5688   6.5876   6.6696   6.8220   6.8370
     6.8389   7.0462   7.0576   7.1659   7.5133   7.7539   7.7811   8.0082
     9.3832   9.5590   9.9460   9.9460  10.0230  10.0242  10.0450  10.0469
    10.0590  10.1799  10.2163  10.2165  10.4016  10.4461  10.4995  10.5019
    10.6619  10.6996  10.7011  10.7152  10.8987  10.9508  11.0972  11.0983
    11.2175  11.2190  11.2348  11.2713  11.2790  11.2807  11.3495  11.3506
    12.7409  12.8000  12.8822  12.8827  13.2557  13.3429  13.3434  13.3551
    16.6926  17.6017  18.6712  19.3594  19.3597

          k =-0.2500-0.2500 0.0000 (  2742 PWs)   bands (ev):

    -7.6420  -7.0265  -7.0119  -6.7310  -6.7160  -6.6106  -6.5983  -6.5472
     4.7803   4.7902   5.0877   5.0971   5.2491   5.2644   5.7162   5.9776
     6.3157   6.3345   6.5946   6.6822   6.6888   6.7984   6.8663   6.9302
     7.0248   7.1609   7.1817   7.2089   7.2218   7.4960   7.8418   8.1291
     9.5590   9.6108   9.6389   9.6405   9.7765  10.0769  10.0773  10.1335
    10.2446  10.2464  10.3095  10.3878  10.4509  10.5603  10.5619  10.5637
    10.6348  10.6666  10.6685  10.7446  10.7677  10.8237  11.0510  11.0533
    11.1069  11.2723  11.2725  11.3414  11.3713  11.3719  11.3879  11.4100
    13.0456  13.0477  13.0551  13.0551  13.0647  13.2071  13.2075  13.2366
    16.0075  18.0591  18.0611  19.3724  19.3735

 ------ SPIN DOWN ----------


          k = 0.0000 0.0000 0.0000 (  2733 PWs)   bands (ev):

    -8.0829  -6.7197  -6.6856  -6.6853  -6.6853  -6.6287  -6.6169  -6.6169
     4.0311   4.0523   4.0523   4.0561   5.3459   5.3460   5.3460   6.5269
     6.5269   6.5339   6.5507   6.5507   6.5684   6.5684   6.5887   7.9545
     7.9574   7.9574   7.9787   7.9787   7.9817   8.8341   8.8341   8.8341
     9.2665   9.2665   9.2737   9.5623   9.5623   9.6974   9.8800   9.8800
     9.9468   9.9472   9.9472  10.2319  10.2319  10.2322  10.4893  10.4893
    10.4893  10.6032  10.6033  10.6033  10.9143  10.9143  11.0423  11.0423
    11.0438  11.1823  11.2663  11.2663  11.2671  11.3854  11.3863  11.3863
    13.5474  13.5474  13.6064  13.6065  13.6065  13.6903  13.6903  13.6909
    13.7584  17.7944  17.7988  17.8004  17.8004

          k =-0.1250 0.1250 0.1250 (  2743 PWs)   bands (ev):

    -7.9070  -6.9317  -6.7064  -6.6791  -6.6790  -6.6412  -6.6302  -6.6301
     4.3529   4.3701   4.3735   4.6206   5.3560   5.3626   5.3641   6.4374
     6.4446   6.4658   6.6387   6.6778   6.6868   6.7062   6.7492   7.1995
     7.2105   7.2492   7.6906   7.7040   7.7141   7.9768   8.4084   8.4164
     9.2834   9.3399   9.3412   9.6805   9.8265   9.9642  10.0454  10.0460
    10.1139  10.2221  10.2222  10.2511  10.3774  10.5240  10.5430  10.5453
    10.5547  10.6388  10.6905  10.6920  10.9005  10.9962  11.1173  11.1189
    11.1211  11.1810  11.2612  11.2616  11.2831  11.3163  11.3447  11.3458
    13.2145  13.2808  13.2808  13.2948  13.3849  13.4225  13.4225  13.4668
    14.7655  17.5928  18.6749  18.6780  18.6789

          k = 0.2500-0.2500-0.2500 (  2764 PWs)   bands (ev):

    -7.4576  -7.4410  -6.6999  -6.6622  -6.6600  -6.6574  -6.6543  -6.6538
     5.0542   5.0608   5.0669   5.0718   5.1086   5.1086   6.0934   6.1141
     6.3249   6.3398   6.3911   6.4094   6.4654   6.4940   6.8562   6.8724
     7.0177   7.0306   7.3189   7.3271   7.4894   7.5022   7.6376   7.6564
     9.6356   9.6365   9.8206   9.8207   9.8899   9.8915  10.0256  10.0262
    10.1616  10.1632  10.2248  10.2254  10.5356  10.5382  10.6449  10.6477
    10.6612  10.6626  10.8730  10.8746  10.9667  10.9686  11.2463  11.2483
    11.2551  11.2570  11.2997  11.3017  11.3317  11.3331  11.4346  11.4381
    13.0398  13.0405  13.0461  13.0466  13.0542  13.0543  13.0647  13.0651
    16.4797  16.4830  19.6520  19.6521  19.7110

          k = 0.0000 0.0000 0.2500 (  2706 PWs)   bands (ev):

    -7.8537  -6.8171  -6.7721  -6.7500  -6.7494  -6.7493  -6.5743  -6.5635
     4.4927   4.5063   4.5154   4.5188   5.2477   5.5359   5.5360   6.5304
     6.5367   6.5628   6.5879   6.6073   6.6212   6.6378   6.6911   7.0718
     7.0725   7.1694   7.1889   7.4720   7.9813   7.9865   8.6585   8.6677
     8.9567   9.5357   9.6310   9.6310   9.8164   9.9818  10.0587  10.0591
    10.0991  10.1139  10.1886  10.2807  10.2807  10.3992  10.4136  10.5464
    10.5482  10.6158  10.6164  10.6612  10.9131  11.0101  11.0111  11.0518
    11.0579  11.1713  11.2436  11.2956  11.2966  11.3482  11.3494  11.3806
    12.8784  13.0394  13.0399  13.0429  13.5247  13.5679  13.6450  13.6458
    15.2124  18.5639  18.5672  18.5677  18.5686

          k = 0.3750-0.3750-0.1250 (  2734 PWs)   bands (ev):

    -7.5042  -7.1739  -6.9693  -6.7805  -6.7662  -6.6004  -6.5614  -6.5521
     4.9685   4.9820   4.9971   5.3194   5.4362   5.5121   5.5350   6.1820
     6.2189   6.2464   6.2804   6.5891   6.6097   6.7508   6.7604   6.8676
     6.8992   6.9338   7.0026   7.3656   7.3852   7.7282   7.7688   8.0230
     9.4578   9.6525   9.8241   9.8969   9.9574   9.9702  10.0388  10.1401
    10.1429  10.1708  10.2123  10.2896  10.3179  10.3246  10.4796  10.5136
    10.7346  10.7408  10.7441  10.7571  10.8797  10.9072  11.0409  11.0790
    11.1691  11.1965  11.2269  11.2582  11.3335  11.3370  11.3551  11.4115
    12.7388  12.7825  12.8347  12.9310  13.2361  13.2591  13.3647  13.4337
    16.6930  17.6007  18.6694  19.3612  19.3629

          k = 0.2500-0.2500 0.0000 (  2742 PWs)   bands (ev):

    -7.6420  -7.0264  -7.0118  -6.7306  -6.7157  -6.6111  -6.5989  -6.5472
     4.7818   4.7928   5.0772   5.0847   5.2704   5.2851   5.7145   5.9749
     6.2906   6.3169   6.5357   6.7270   6.7497   6.7587   6.9147   6.9273
     6.9437   7.1585   7.1794   7.1987   7.4517   7.4689   7.6393   8.1312
     9.6597   9.6613   9.7913   9.8511   9.9067   9.9081  10.0466  10.1137
    10.1363  10.2283  10.2311  10.2312  10.2325  10.3640  10.3649  10.5182
    10.7213  10.7527  10.7537  10.8304  10.9043  11.0968  11.0981  11.1157
    11.2100  11.2113  11.2331  11.2444  11.2814  11.3466  11.4066  11.4078
    13.0425  13.0470  13.0577  13.0581  13.1148  13.1518  13.1523  13.2840
    16.0063  18.0596  18.0604  19.3769  19.3781

          k = 0.0000 0.0000-0.5000 (  2762 PWs)   bands (ev):

    -7.3205  -7.3049  -6.8391  -6.8126  -6.8117  -6.8115  -6.5211  -6.5092
     5.0202   5.0266   5.0464   5.0542   5.7701   5.7920   6.0997   6.1054
     6.1251   6.1312   6.4044   6.4234   6.6514   6.6699   6.6837   6.7023
     6.7227   6.7262   6.7293   6.7725   8.1494   8.1606   8.1681   8.1793
     9.2507   9.2516   9.9521   9.9532  10.0329  10.0335  10.0479  10.0480
    10.0498  10.0535  10.1720  10.1722  10.3523  10.3528  10.4978  10.4996
    10.5199  10.5232  10.5851  10.5855  10.9134  10.9135  11.0059  11.0076
    11.1498  11.1505  11.2277  11.2294  11.3370  11.3384  11.3422  11.3431
    12.4616  12.4623  12.7203  12.7206  13.5181  13.5192  13.6180  13.6188
    17.6654  17.6659  19.2492  19.2502  19.2530

          k = 0.0000 0.2500-0.5000 (  2740 PWs)   bands (ev):

    -7.1758  -7.1463  -7.1459  -7.1451  -6.6007  -6.5756  -6.5727  -6.5700
     5.2850   5.2893   5.3051   5.3440   5.3928   5.5557   5.5569   5.6673
     6.2317   6.2621   6.2697   6.3022   6.6268   6.6325   6.6438   6.7715
     6.9095   7.2702   7.2836   7.4689   7.4872   7.5129   7.5181   7.5682
     9.7133   9.7404   9.7410   9.8089   9.9891  10.0390  10.0412  10.0717
    10.1203  10.2740  10.2901  10.2917  10.3467  10.3479  10.4016  10.4669
    10.6188  10.6654  10.6660  10.6928  10.9489  10.9502  10.9700  10.9916
    11.1757  11.1863  11.1883  11.2812  11.2965  11.3010  11.3669  11.3677
    12.7747  12.8896  12.8899  13.0034  13.1552  13.1989  13.1997  13.2441
    18.0159  18.0333  18.0364  18.0553  20.8581

          k = 0.1250 0.1250 0.1250 (  2743 PWs)   bands (ev):

    -7.9071  -6.9319  -6.7070  -6.6798  -6.6798  -6.6404  -6.6292  -6.6292
     4.3507   4.3693   4.3693   4.6257   5.3544   5.3614   5.3614   6.4808
     6.4808   6.5044   6.6230   6.6344   6.6344   6.7069   6.7069   7.2163
     7.2163   7.2388   7.7059   7.7222   7.7222   7.9830   8.4608   8.4608
     9.2645   9.2645   9.2655   9.6208   9.6208  10.0051  10.0683  10.0683
    10.0684  10.2787  10.2787  10.2798  10.6054  10.6059  10.6059  10.6260
    10.6260  10.7262  10.7279  10.7279  10.9173  10.9173  10.9425  10.9425
    10.9453  11.0354  11.2586  11.2586  11.2593  11.3958  11.3967  11.3967
    13.3355  13.3355  13.3517  13.3518  13.3518  13.3589  13.3589  13.3589
    14.7658  17.5943  18.6726  18.6759  18.6759

          k =-0.2500-0.2500-0.2500 (  2764 PWs)   bands (ev):

    -7.4588  -7.4400  -6.7018  -6.6681  -6.6681  -6.6534  -6.6478  -6.6478
     5.0115   5.0293   5.0293   5.1124   5.1392   5.1392   6.0866   6.1304
     6.2607   6.2607   6.2935   6.6908   6.6908   6.7284   6.7511   6.7635
     6.7635   6.9884   6.9884   7.4473   7.4629   7.4629   7.8734   7.8734
     9.4934   9.4936   9.4936   9.6768   9.6768  10.1196  10.1239  10.1239
    10.1244  10.4512  10.4512  10.4519  10.5100  10.5104  10.5104  10.7287
    10.7287  10.8452  10.8452  10.8502  10.8733  11.0589  11.0620  11.0620
    11.2469  11.2469  11.2476  11.3049  11.3049  11.4035  11.4046  11.4046
    13.0412  13.0412  13.0415  13.0579  13.0579  13.0720  13.0726  13.0726
    16.4084  16.5584  19.6303  19.6304  19.6304

          k =-0.3750-0.3750-0.1250 (  2734 PWs)   bands (ev):

    -7.5043  -7.1740  -6.9693  -6.7806  -6.7663  -6.6002  -6.5613  -6.5519
     4.9703   4.9820   4.9977   5.2974   5.4503   5.5089   5.5178   6.2258
     6.2274   6.2468   6.2831   6.6590   6.6740   6.6803   6.6973   6.7195
     6.8374   7.0842   7.0963   7.2790   7.3899   7.7619   7.7706   8.0596
     9.3555   9.5458   9.7628   9.7629   9.7868  10.0624  10.0986  10.0987
    10.2892  10.2913  10.4230  10.4236  10.4446  10.5558  10.5564  10.5623
    10.5723  10.6520  10.6539  10.6546  10.8440  10.8825  10.8844  10.9617
    11.0738  11.2455  11.2764  11.3032  11.3034  11.3617  11.3624  11.4249
    12.6940  12.8397  12.8851  12.8855  13.2819  13.3365  13.3436  13.3441
    16.6924  17.6033  18.6689  19.3585  19.3589

          k = 0.3750 0.3750-0.1250 (  2734 PWs)   bands (ev):

    -7.5041  -7.1739  -6.9693  -6.7804  -6.7661  -6.6005  -6.5615  -6.5522
     4.9731   4.9863   4.9984   5.2571   5.5059   5.5189   5.5229   6.1316
     6.2294   6.2502   6.3572   6.5688   6.5876   6.6696   6.8220   6.8370
     6.8389   7.0462   7.0576   7.1659   7.5133   7.7539   7.7811   8.0082
     9.3832   9.5590   9.9460   9.9461  10.0229  10.0242  10.0450  10.0469
    10.0591  10.1799  10.2163  10.2165  10.4016  10.4461  10.4995  10.5020
    10.6619  10.6996  10.7011  10.7152  10.8987  10.9508  11.0971  11.0983
    11.2175  11.2190  11.2348  11.2713  11.2790  11.2806  11.3495  11.3506
    12.7409  12.8000  12.8823  12.8827  13.2556  13.3429  13.3434  13.3551
    16.6926  17.6017  18.6712  19.3594  19.3597

          k =-0.2500-0.2500 0.0000 (  2742 PWs)   bands (ev):

    -7.6420  -7.0265  -7.0119  -6.7310  -6.7160  -6.6106  -6.5983  -6.5472
     4.7803   4.7902   5.0877   5.0971   5.2491   5.2644   5.7162   5.9776
     6.3157   6.3345   6.5946   6.6823   6.6888   6.7984   6.8663   6.9302
     7.0248   7.1609   7.1817   7.2089   7.2218   7.4960   7.8418   8.1291
     9.5591   9.6108   9.6389   9.6405   9.7765  10.0769  10.0773  10.1335
    10.2446  10.2464  10.3095  10.3878  10.4509  10.5603  10.5619  10.5637
    10.6348  10.6666  10.6686  10.7446  10.7677  10.8237  11.0510  11.0533
    11.1068  11.2723  11.2725  11.3414  11.3713  11.3719  11.3879  11.4100
    13.0456  13.0477  13.0550  13.0551  13.0647  13.2072  13.2075  13.2365
    16.0075  18.0591  18.0611  19.3724  19.3735

     the Fermi energy is    11.9586 ev

!    total energy              =    -941.95414574 Ry
     Harris-Foulkes estimate   =    -941.95414574 Ry
     estimated scf accuracy    <          7.2E-09 Ry

     The total energy is the sum of the following terms:

     one-electron contribution =     -56.32839725 Ry
     hartree contribution      =     175.70807592 Ry
     xc contribution           =    -297.53834413 Ry
     ewald contribution        =    -763.85740583 Ry
     Hubbard energy            =       0.06192556 Ry
     smearing contrib. (-TS)   =       0.00000000 Ry

     total magnetization       =     0.00 Bohr mag/cell
     absolute magnetization    =    12.28 Bohr mag/cell

     convergence has been achieved in   7 iterations

     Writing output data file nio.save
 
     init_run     :     13.64s CPU     15.54s WALL (       1 calls)
     electrons    :    273.06s CPU    287.79s WALL (       1 calls)

     Called by init_run:
     wfcinit      :      0.68s CPU      1.54s WALL (       1 calls)
     potinit      :      1.10s CPU      1.32s WALL (       1 calls)

     Called by electrons:
     c_bands      :    111.48s CPU    117.23s WALL (       7 calls)
     sum_band     :     87.58s CPU     90.22s WALL (       7 calls)
     v_of_rho     :      7.33s CPU      8.26s WALL (       8 calls)
     newd         :     73.25s CPU     79.05s WALL (       8 calls)
     mix_rho      :      1.08s CPU      1.19s WALL (       7 calls)

     Called by c_bands:
     init_us_2    :      1.01s CPU      1.09s WALL (     105 calls)
     cegterg      :    108.30s CPU    113.46s WALL (      49 calls)

     Called by *egterg:
     h_psi        :     75.89s CPU     78.91s WALL (     226 calls)
     s_psi        :      6.62s CPU      6.61s WALL (     233 calls)
     g_psi        :      0.40s CPU      0.39s WALL (     177 calls)
     cdiaghg      :      7.93s CPU      7.87s WALL (     219 calls)

     Called by h_psi:
     add_vuspsi   :      6.21s CPU      6.24s WALL (     226 calls)

     General routines
     calbec       :     10.88s CPU     10.88s WALL (     557 calls)
     fft          :      6.42s CPU      7.17s WALL (     236 calls)
     ffts         :      0.06s CPU      0.10s WALL (      30 calls)
     fftw         :     42.14s CPU     46.22s WALL (   24191 calls)
     interpolate  :      1.12s CPU      1.44s WALL (      30 calls)
     davcio       :      0.01s CPU      2.07s WALL (     308 calls)
 
     Parallel routines
     fft_scatter  :      8.70s CPU     10.23s WALL (   24457 calls)
     EXX routines
 
     PWSCF        :  4m47.09s CPU     5m 3.82s WALL

 
   This run was terminated on:  17:12: 4  16Jun2012            

=------------------------------------------------------------------------------=
   JOB DONE.
=------------------------------------------------------------------------------=
