
     Program PWSCF v.5.0        starts on 16Jun2012 at 17:16:32 

     This program is part of the open-source Quantum ESPRESSO suite
     for quantum simulation of materials; please cite
         "P. Giannozzi et al., J. Phys.:Condens. Matter 21 395502 (2009);
          URL http://www.quantum-espresso.org", 
     in publications or presentations arising from this work. More details at
     http://www.quantum-espresso.org/quote.php

     Parallel version (MPI), running on     4 processors
     K-points division:     npool     =    4

     Current dimensions of program PWSCF are:
     Max number of different atomic species (ntypx) = 10
     Max number of k-points (npk) =  40000
     Max angular momentum in pseudopotentials (lmaxx) =  3
     Waiting for input...
     Reading input from standard input
               file Ni.pbe-nd-rrkjus.UPF: wavefunction(s)  4S renormalized
               file Ni.pbe-nd-rrkjus.UPF: wavefunction(s)  4S renormalized
               file O.pbe-rrkjus.UPF: wavefunction(s)  2S renormalized
               file O.pbe-rrkjus.UPF: wavefunction(s)  2S renormalized

     Subspace diagonalization in iterative solution of the eigenvalue problem:
     a serial algorithm will be used

 
     G-vector sticks info
     --------------------
     sticks:   dense  smooth     PW     G-vecs:    dense   smooth      PW
     Sum        2587    1039    301                86547    22075    3479
 


     bravais-lattice index     =            0
     lattice parameter (alat)  =       7.9000  a.u.
     unit-cell volume          =     986.0780 (a.u.)^3
     number of atoms/cell      =           16
     number of atomic types    =            4
     number of electrons       =       128.00
     number of Kohn-Sham states=           77
     kinetic-energy cutoff     =      30.0000  Ry
     charge density cutoff     =     300.0000  Ry
     convergence threshold     =      1.0E-08
     mixing beta               =       0.3000
     number of iterations used =            8  plain     mixing
     Exchange-correlation      =  SLA  PW   PBE  PBE ( 1 4 3 4 0)
     EXX-fraction              =        0.00

     celldm(1)=   7.900000  celldm(2)=   0.000000  celldm(3)=   0.000000
     celldm(4)=   0.000000  celldm(5)=   0.000000  celldm(6)=   0.000000

     crystal axes: (cart. coord. in units of alat)
               a(1) = (   1.000000   1.000000   0.000000 )  
               a(2) = (   1.000000   0.000000   1.000000 )  
               a(3) = (   0.000000   1.000000   1.000000 )  

     reciprocal axes: (cart. coord. in units 2 pi/alat)
               b(1) = (  0.500000  0.500000 -0.500000 )  
               b(2) = (  0.500000 -0.500000  0.500000 )  
               b(3) = ( -0.500000  0.500000  0.500000 )  


     PseudoPot. # 1 for Ni read from file:
     ../pseudo/Ni.pbe-nd-rrkjus.UPF
     MD5 check sum: 8081f0a005c9a5470caab1a58e82ecb2
     Pseudo is Ultrasoft + core correction, Zval = 10.0
     Generated by new atomic code, or converted to UPF format
     Using radial grid of 1203 points,  6 beta functions with: 
                l(1) =   0
                l(2) =   0
                l(3) =   1
                l(4) =   1
                l(5) =   2
                l(6) =   2
     Q(r) pseudized with 0 coefficients 


     PseudoPot. # 2 for Ni read from file:
     ../pseudo/Ni.pbe-nd-rrkjus.UPF
     MD5 check sum: 8081f0a005c9a5470caab1a58e82ecb2
     Pseudo is Ultrasoft + core correction, Zval = 10.0
     Generated by new atomic code, or converted to UPF format
     Using radial grid of 1203 points,  6 beta functions with: 
                l(1) =   0
                l(2) =   0
                l(3) =   1
                l(4) =   1
                l(5) =   2
                l(6) =   2
     Q(r) pseudized with 0 coefficients 


     PseudoPot. # 3 for O  read from file:
     ../pseudo/O.pbe-rrkjus.UPF
     MD5 check sum: 390ba29e75625707450f3bd3f0eb6be9
     Pseudo is Ultrasoft, Zval =  6.0
     Generated by new atomic code, or converted to UPF format
     Using radial grid of 1269 points,  4 beta functions with: 
                l(1) =   0
                l(2) =   0
                l(3) =   1
                l(4) =   1
     Q(r) pseudized with 0 coefficients 


     PseudoPot. # 4 for O  read from file:
     ../pseudo/O.pbe-rrkjus.UPF
     MD5 check sum: 390ba29e75625707450f3bd3f0eb6be9
     Pseudo is Ultrasoft, Zval =  6.0
     Generated by new atomic code, or converted to UPF format
     Using radial grid of 1269 points,  4 beta functions with: 
                l(1) =   0
                l(2) =   0
                l(3) =   1
                l(4) =   1
     Q(r) pseudized with 0 coefficients 


     atomic species   valence    mass     pseudopotential
        Ni1           10.00     1.00000     Ni( 1.00)
        Ni2           10.00     1.00000     Ni( 1.00)
        O1             6.00     1.00000     O ( 1.00)
        O2             6.00     1.00000     O ( 1.00)

     Starting magnetic structure 
     atomic species   magnetization
        Ni1          0.500
        Ni2         -0.500
        O1           0.000
        O2           0.000
 -----
     simplified LDA+U calculation, Hubbard_lmax = 2
     atomic species  L   Hubbard U  Hubbard alpha
        Ni1          2    0.000000    0.000000
        Ni2          2    0.000000    0.000000
        O1           1    0.000000    0.070000
        O2           1    0.000000    0.000000
 -----

      6 Sym. Ops. (no inversion) found



   Cartesian axes

     site n.     atom                  positions (alat units)
         1           Ni1 tau(   1) = (   0.0000000   0.0000000  -0.5000000  )
         2           Ni1 tau(   2) = (   1.0000000   0.5000000   0.0000000  )
         3           Ni1 tau(   3) = (   0.5000000   1.0000000   0.0000000  )
         4           Ni1 tau(   4) = (   0.5000000   0.5000000   0.5000000  )
         5           Ni2 tau(   5) = (   0.5000000   0.5000000  -0.5000000  )
         6           Ni2 tau(   6) = (   0.5000000   0.0000000   0.0000000  )
         7           Ni2 tau(   7) = (   0.0000000   0.5000000   0.0000000  )
         8           Ni2 tau(   8) = (   1.0000000   1.0000000   0.5000000  )
         9           O1  tau(   9) = (   0.0000000   0.0000000   0.0000000  )
        10           O2  tau(  10) = (   0.5000000   0.5000000   0.0000000  )
        11           O2  tau(  11) = (   0.0000000   0.5000000   0.5000000  )
        12           O2  tau(  12) = (   0.5000000   0.0000000   0.5000000  )
        13           O2  tau(  13) = (   1.0000000   0.5000000   0.5000000  )
        14           O2  tau(  14) = (   0.5000000   1.0000000   0.5000000  )
        15           O2  tau(  15) = (   0.5000000   0.5000000   1.0000000  )
        16           O2  tau(  16) = (   1.0000000   1.0000000   1.0000000  )

     number of k points=    26  gaussian smearing, width (Ry)=  0.0100
                       cart. coord. in units 2pi/alat
        k(    1) = (   0.0000000   0.0000000   0.0000000), wk =   0.0156250
        k(    2) = (  -0.1250000   0.1250000   0.1250000), wk =   0.0937500
        k(    3) = (   0.2500000  -0.2500000  -0.2500000), wk =   0.0468750
        k(    4) = (   0.0000000   0.0000000   0.2500000), wk =   0.0937500
        k(    5) = (   0.3750000  -0.3750000  -0.1250000), wk =   0.1875000
        k(    6) = (   0.2500000  -0.2500000   0.0000000), wk =   0.0937500
        k(    7) = (   0.0000000   0.0000000  -0.5000000), wk =   0.0468750
        k(    8) = (   0.0000000   0.2500000  -0.5000000), wk =   0.0937500
        k(    9) = (   0.1250000   0.1250000   0.1250000), wk =   0.0312500
        k(   10) = (  -0.2500000  -0.2500000  -0.2500000), wk =   0.0156250
        k(   11) = (  -0.3750000  -0.3750000  -0.1250000), wk =   0.0937500
        k(   12) = (   0.3750000   0.3750000  -0.1250000), wk =   0.0937500
        k(   13) = (  -0.2500000  -0.2500000   0.0000000), wk =   0.0937500
        k(   14) = (   0.0000000   0.0000000   0.0000000), wk =   0.0156250
        k(   15) = (  -0.1250000   0.1250000   0.1250000), wk =   0.0937500
        k(   16) = (   0.2500000  -0.2500000  -0.2500000), wk =   0.0468750
        k(   17) = (   0.0000000   0.0000000   0.2500000), wk =   0.0937500
        k(   18) = (   0.3750000  -0.3750000  -0.1250000), wk =   0.1875000
        k(   19) = (   0.2500000  -0.2500000   0.0000000), wk =   0.0937500
        k(   20) = (   0.0000000   0.0000000  -0.5000000), wk =   0.0468750
        k(   21) = (   0.0000000   0.2500000  -0.5000000), wk =   0.0937500
        k(   22) = (   0.1250000   0.1250000   0.1250000), wk =   0.0312500
        k(   23) = (  -0.2500000  -0.2500000  -0.2500000), wk =   0.0156250
        k(   24) = (  -0.3750000  -0.3750000  -0.1250000), wk =   0.0937500
        k(   25) = (   0.3750000   0.3750000  -0.1250000), wk =   0.0937500
        k(   26) = (  -0.2500000  -0.2500000   0.0000000), wk =   0.0937500

     Dense  grid:    86547 G-vectors     FFT dimensions: (  64,  64,  64)

     Smooth grid:    22075 G-vectors     FFT dimensions: (  40,  40,  40)

     Largest allocated arrays     est. size (Mb)     dimensions
        Kohn-Sham Wavefunctions         3.25 Mb     (   2764,   77)
        Atomic wavefunctions            3.37 Mb     (   2764,   80)
        NL pseudopotentials             8.77 Mb     (   2764,  208)
        Each V/rho on FFT grid          8.00 Mb     ( 262144,   2)
        Each G-vector array             0.66 Mb     (  86547)
        G-vector shells                 0.00 Mb     (    635)
     Largest temporary arrays     est. size (Mb)     dimensions
        Auxiliary wavefunctions        12.99 Mb     (   2764,  308)
        Each subspace H/S matrix        1.45 Mb     ( 308, 308)
        Each <psi_i|beta_j> matrix      0.24 Mb     (    208,   77)
        Arrays for rho mixing          32.00 Mb     ( 262144,   8)

     Check: negative/imaginary core charge=   -0.000047    0.000000

     The initial density is read from file :
     ./temp/nio.save/charge-density.dat

     Number of +U iterations with fixed ns =  0
     Starting occupations:
 --- enter write_ns ---
 LDA+U parameters:
U( 1)     =  0.00000000
alpha( 1) =  0.00000000
U( 2)     =  0.00000000
alpha( 2) =  0.00000000
U( 3)     =  0.00000000
alpha( 3) =  0.07000000
U( 4)     =  0.00000000
alpha( 4) =  0.00000000
atom    1   Tr[ns(na)] (up, down, total) =   4.95241  3.75361  8.70602
   spin  1
    eigenvalues: 
  0.980  0.980  0.997  0.997  0.997
    eigenvectors:
  0.000  1.000  0.000  0.000  0.000
  0.000  0.000  0.167  0.500  0.333
  0.000  0.000  0.167  0.500  0.333
  1.000  0.000  0.000  0.000  0.000
  0.000  0.000  0.667  0.000  0.333
    occupations:
  0.980  0.000  0.000  0.000  0.000
  0.000  0.997  0.000  0.000  0.000
  0.000  0.000  0.997  0.000  0.000
  0.000  0.000  0.000  0.980  0.000
  0.000  0.000  0.000  0.000  0.997
   spin  2
    eigenvalues: 
  0.384  0.384  0.995  0.995  0.995
    eigenvectors:
  1.000  0.000  0.000  0.000  0.000
  0.000  0.000  0.167  0.500  0.333
  0.000  0.000  0.167  0.500  0.333
  0.000  1.000  0.000  0.000  0.000
  0.000  0.000  0.667  0.000  0.333
    occupations:
  0.384  0.001  0.001  0.000  0.001
  0.001  0.995  0.000  0.001  0.000
  0.001  0.000  0.995 -0.001  0.000
  0.000  0.001 -0.001  0.384  0.000
  0.001  0.000  0.000  0.000  0.995
atomic mag. moment =     1.198793
atom    2   Tr[ns(na)] (up, down, total) =   4.95241  3.75361  8.70602
   spin  1
    eigenvalues: 
  0.980  0.980  0.997  0.997  0.997
    eigenvectors:
  0.750  0.250  0.000  0.000  0.000
  0.000  0.000  0.667  0.000  0.333
  0.000  0.000  0.167  0.500  0.333
  0.250  0.750  0.000  0.000  0.000
  0.000  0.000  0.167  0.500  0.333
    occupations:
  0.980  0.000  0.000  0.000  0.000
  0.000  0.997  0.000  0.000  0.000
  0.000  0.000  0.997  0.000  0.000
  0.000  0.000  0.000  0.980  0.000
  0.000  0.000  0.000  0.000  0.997
   spin  2
    eigenvalues: 
  0.384  0.384  0.995  0.995  0.995
    eigenvectors:
  0.250  0.750  0.000  0.000  0.000
  0.000  0.000  0.667  0.000  0.333
  0.000  0.000  0.167  0.500  0.333
  0.750  0.250  0.000  0.000  0.000
  0.000  0.000  0.167  0.500  0.333
    occupations:
  0.384  0.001  0.001  0.000  0.001
  0.001  0.995  0.000  0.001  0.000
  0.001  0.000  0.995 -0.001  0.000
  0.000  0.001 -0.001  0.384  0.000
  0.001  0.000  0.000  0.000  0.995
atomic mag. moment =     1.198793
atom    3   Tr[ns(na)] (up, down, total) =   4.95241  3.75361  8.70602
   spin  1
    eigenvalues: 
  0.980  0.980  0.997  0.997  0.997
    eigenvectors:
  0.750  0.250  0.000  0.000  0.000
  0.000  0.000  0.167  0.500  0.333
  0.000  0.000  0.667  0.000  0.333
  0.250  0.750  0.000  0.000  0.000
  0.000  0.000  0.167  0.500  0.333
    occupations:
  0.980  0.000  0.000  0.000  0.000
  0.000  0.997  0.000  0.000  0.000
  0.000  0.000  0.997  0.000  0.000
  0.000  0.000  0.000  0.980  0.000
  0.000  0.000  0.000  0.000  0.997
   spin  2
    eigenvalues: 
  0.384  0.384  0.995  0.995  0.995
    eigenvectors:
  0.250  0.750  0.000  0.000  0.000
  0.000  0.000  0.167  0.500  0.333
  0.000  0.000  0.667  0.000  0.333
  0.750  0.250  0.000  0.000  0.000
  0.000  0.000  0.167  0.500  0.333
    occupations:
  0.384  0.001  0.001  0.000  0.001
  0.001  0.995  0.000  0.001  0.000
  0.001  0.000  0.995 -0.001  0.000
  0.000  0.001 -0.001  0.384  0.000
  0.001  0.000  0.000  0.000  0.995
atomic mag. moment =     1.198793
atom    4   Tr[ns(na)] (up, down, total) =   4.95241  3.75362  8.70603
   spin  1
    eigenvalues: 
  0.980  0.980  0.997  0.997  0.997
    eigenvectors:
  0.294  0.706  0.000  0.000  0.000
  0.000  0.000  0.038  0.629  0.333
  0.000  0.000  0.347  0.319  0.333
  0.706  0.294  0.000  0.000  0.000
  0.000  0.000  0.615  0.052  0.333
    occupations:
  0.980  0.000  0.000  0.000  0.000
  0.000  0.997  0.000  0.000  0.000
  0.000  0.000  0.997  0.000  0.000
  0.000  0.000  0.000  0.980  0.000
  0.000  0.000  0.000  0.000  0.997
   spin  2
    eigenvalues: 
  0.384  0.384  0.995  0.995  0.995
    eigenvectors:
  0.565  0.435  0.000  0.000  0.000
  0.000  0.000  0.116  0.551  0.333
  0.000  0.000  0.224  0.443  0.333
  0.435  0.565  0.000  0.000  0.000
  0.000  0.000  0.661  0.006  0.333
    occupations:
  0.384  0.001  0.001  0.000  0.001
  0.001  0.995  0.000  0.001  0.000
  0.001  0.000  0.995 -0.001  0.000
  0.000  0.001 -0.001  0.384  0.000
  0.001  0.000  0.000  0.000  0.995
atomic mag. moment =     1.198788
atom    5   Tr[ns(na)] (up, down, total) =   3.75362  4.95241  8.70602
   spin  1
    eigenvalues: 
  0.384  0.384  0.995  0.995  0.995
    eigenvectors:
  0.295  0.705  0.000  0.000  0.000
  0.000  0.000  0.133  0.533  0.333
  0.000  0.000  0.202  0.464  0.333
  0.705  0.295  0.000  0.000  0.000
  0.000  0.000  0.664  0.002  0.333
    occupations:
  0.384  0.001  0.001  0.000  0.001
  0.001  0.995  0.000  0.001  0.000
  0.001  0.000  0.995 -0.001  0.000
  0.000  0.001 -0.001  0.384  0.000
  0.001  0.000  0.000  0.000  0.995
   spin  2
    eigenvalues: 
  0.980  0.980  0.997  0.997  0.997
    eigenvectors:
  0.491  0.509  0.000  0.000  0.000
  0.000  0.000  0.012  0.655  0.333
  0.000  0.000  0.417  0.250  0.333
  0.509  0.491  0.000  0.000  0.000
  0.000  0.000  0.571  0.096  0.333
    occupations:
  0.980  0.000  0.000  0.000  0.000
  0.000  0.997  0.000  0.000  0.000
  0.000  0.000  0.997  0.000  0.000
  0.000  0.000  0.000  0.980  0.000
  0.000  0.000  0.000  0.000  0.997
atomic mag. moment =    -1.198791
atom    6   Tr[ns(na)] (up, down, total) =   3.75362  4.95241  8.70602
   spin  1
    eigenvalues: 
  0.384  0.384  0.995  0.995  0.995
    eigenvectors:
  0.250  0.750  0.000  0.000  0.000
  0.000  0.000  0.167  0.500  0.333
  0.000  0.000  0.667  0.000  0.333
  0.750  0.250  0.000  0.000  0.000
  0.000  0.000  0.167  0.500  0.333
    occupations:
  0.384  0.001  0.001  0.000  0.001
  0.001  0.995  0.000  0.001  0.000
  0.001  0.000  0.995 -0.001  0.000
  0.000  0.001 -0.001  0.384  0.000
  0.001  0.000  0.000  0.000  0.995
   spin  2
    eigenvalues: 
  0.980  0.980  0.997  0.997  0.997
    eigenvectors:
  0.750  0.250  0.000  0.000  0.000
  0.000  0.000  0.167  0.500  0.333
  0.000  0.000  0.667  0.000  0.333
  0.250  0.750  0.000  0.000  0.000
  0.000  0.000  0.167  0.500  0.333
    occupations:
  0.980  0.000  0.000  0.000  0.000
  0.000  0.997  0.000  0.000  0.000
  0.000  0.000  0.997  0.000  0.000
  0.000  0.000  0.000  0.980  0.000
  0.000  0.000  0.000  0.000  0.997
atomic mag. moment =    -1.198792
atom    7   Tr[ns(na)] (up, down, total) =   3.75362  4.95241  8.70602
   spin  1
    eigenvalues: 
  0.384  0.384  0.995  0.995  0.995
    eigenvectors:
  0.250  0.750  0.000  0.000  0.000
  0.000  0.000  0.667  0.000  0.333
  0.000  0.000  0.167  0.500  0.333
  0.750  0.250  0.000  0.000  0.000
  0.000  0.000  0.167  0.500  0.333
    occupations:
  0.384  0.001  0.001  0.000  0.001
  0.001  0.995  0.000  0.001  0.000
  0.001  0.000  0.995 -0.001  0.000
  0.000  0.001 -0.001  0.384  0.000
  0.001  0.000  0.000  0.000  0.995
   spin  2
    eigenvalues: 
  0.980  0.980  0.997  0.997  0.997
    eigenvectors:
  0.750  0.250  0.000  0.000  0.000
  0.000  0.000  0.667  0.000  0.333
  0.000  0.000  0.167  0.500  0.333
  0.250  0.750  0.000  0.000  0.000
  0.000  0.000  0.167  0.500  0.333
    occupations:
  0.980  0.000  0.000  0.000  0.000
  0.000  0.997  0.000  0.000  0.000
  0.000  0.000  0.997  0.000  0.000
  0.000  0.000  0.000  0.980  0.000
  0.000  0.000  0.000  0.000  0.997
atomic mag. moment =    -1.198792
atom    8   Tr[ns(na)] (up, down, total) =   3.75362  4.95241  8.70602
   spin  1
    eigenvalues: 
  0.384  0.384  0.995  0.995  0.995
    eigenvectors:
  1.000  0.000  0.000  0.000  0.000
  0.000  0.000  0.167  0.500  0.333
  0.000  0.000  0.167  0.500  0.333
  0.000  1.000  0.000  0.000  0.000
  0.000  0.000  0.667  0.000  0.333
    occupations:
  0.384  0.001  0.001  0.000  0.001
  0.001  0.995  0.000  0.001  0.000
  0.001  0.000  0.995 -0.001  0.000
  0.000  0.001 -0.001  0.384  0.000
  0.001  0.000  0.000  0.000  0.995
   spin  2
    eigenvalues: 
  0.980  0.980  0.997  0.997  0.997
    eigenvectors:
  0.000  1.000  0.000  0.000  0.000
  0.000  0.000  0.167  0.500  0.333
  0.000  0.000  0.167  0.500  0.333
  1.000  0.000  0.000  0.000  0.000
  0.000  0.000  0.667  0.000  0.333
    occupations:
  0.980  0.000  0.000  0.000  0.000
  0.000  0.997  0.000  0.000  0.000
  0.000  0.000  0.997  0.000  0.000
  0.000  0.000  0.000  0.980  0.000
  0.000  0.000  0.000  0.000  0.997
atomic mag. moment =    -1.198792
atom    9   Tr[ns(na)] (up, down, total) =   2.81114  2.81114  5.62228
   spin  1
    eigenvalues: 
  0.937  0.937  0.938
    eigenvectors:
  0.329  0.338  0.333
  0.624  0.043  0.333
  0.047  0.620  0.333
    occupations:
  0.937  0.000  0.000
  0.000  0.937  0.000
  0.000  0.000  0.937
   spin  2
    eigenvalues: 
  0.937  0.937  0.938
    eigenvectors:
  0.444  0.223  0.333
  0.551  0.116  0.333
  0.006  0.661  0.333
    occupations:
  0.937  0.000  0.000
  0.000  0.937  0.000
  0.000  0.000  0.937
atomic mag. moment =    -0.000001
atom   10   Tr[ns(na)] (up, down, total) =   2.81114  2.81114  5.62228
   spin  1
    eigenvalues: 
  0.937  0.937  0.938
    eigenvectors:
  0.667  0.000  0.333
  0.167  0.500  0.333
  0.167  0.500  0.333
    occupations:
  0.937  0.000  0.000
  0.000  0.937  0.000
  0.000  0.000  0.937
   spin  2
    eigenvalues: 
  0.937  0.937  0.938
    eigenvectors:
  0.667  0.000  0.333
  0.167  0.500  0.333
  0.167  0.500  0.333
    occupations:
  0.937  0.000  0.000
  0.000  0.937  0.000
  0.000  0.000  0.937
atomic mag. moment =     0.000000
atom   11   Tr[ns(na)] (up, down, total) =   2.81114  2.81114  5.62228
   spin  1
    eigenvalues: 
  0.937  0.937  0.938
    eigenvectors:
  0.167  0.500  0.333
  0.667  0.000  0.333
  0.167  0.500  0.333
    occupations:
  0.937  0.000  0.000
  0.000  0.937  0.000
  0.000  0.000  0.937
   spin  2
    eigenvalues: 
  0.937  0.937  0.938
    eigenvectors:
  0.167  0.500  0.333
  0.667  0.000  0.333
  0.167  0.500  0.333
    occupations:
  0.937  0.000  0.000
  0.000  0.937  0.000
  0.000  0.000  0.937
atomic mag. moment =     0.000000
atom   12   Tr[ns(na)] (up, down, total) =   2.81114  2.81114  5.62228
   spin  1
    eigenvalues: 
  0.937  0.937  0.938
    eigenvectors:
  0.167  0.500  0.333
  0.167  0.500  0.333
  0.667  0.000  0.333
    occupations:
  0.937  0.000  0.000
  0.000  0.937  0.000
  0.000  0.000  0.937
   spin  2
    eigenvalues: 
  0.937  0.937  0.938
    eigenvectors:
  0.167  0.500  0.333
  0.167  0.500  0.333
  0.667  0.000  0.333
    occupations:
  0.937  0.000  0.000
  0.000  0.937  0.000
  0.000  0.000  0.937
atomic mag. moment =     0.000000
atom   13   Tr[ns(na)] (up, down, total) =   2.81114  2.81114  5.62228
   spin  1
    eigenvalues: 
  0.937  0.937  0.938
    eigenvectors:
  0.167  0.500  0.333
  0.667  0.000  0.333
  0.167  0.500  0.333
    occupations:
  0.937  0.000  0.000
  0.000  0.937  0.000
  0.000  0.000  0.937
   spin  2
    eigenvalues: 
  0.937  0.937  0.938
    eigenvectors:
  0.167  0.500  0.333
  0.667  0.000  0.333
  0.167  0.500  0.333
    occupations:
  0.937  0.000  0.000
  0.000  0.937  0.000
  0.000  0.000  0.937
atomic mag. moment =     0.000000
atom   14   Tr[ns(na)] (up, down, total) =   2.81114  2.81114  5.62228
   spin  1
    eigenvalues: 
  0.937  0.937  0.938
    eigenvectors:
  0.167  0.500  0.333
  0.167  0.500  0.333
  0.667  0.000  0.333
    occupations:
  0.937  0.000  0.000
  0.000  0.937  0.000
  0.000  0.000  0.937
   spin  2
    eigenvalues: 
  0.937  0.937  0.938
    eigenvectors:
  0.167  0.500  0.333
  0.167  0.500  0.333
  0.667  0.000  0.333
    occupations:
  0.937  0.000  0.000
  0.000  0.937  0.000
  0.000  0.000  0.937
atomic mag. moment =     0.000000
atom   15   Tr[ns(na)] (up, down, total) =   2.81114  2.81114  5.62228
   spin  1
    eigenvalues: 
  0.937  0.937  0.938
    eigenvectors:
  0.667  0.000  0.333
  0.167  0.500  0.333
  0.167  0.500  0.333
    occupations:
  0.937  0.000  0.000
  0.000  0.937  0.000
  0.000  0.000  0.937
   spin  2
    eigenvalues: 
  0.937  0.937  0.938
    eigenvectors:
  0.667  0.000  0.333
  0.167  0.500  0.333
  0.167  0.500  0.333
    occupations:
  0.937  0.000  0.000
  0.000  0.937  0.000
  0.000  0.000  0.937
atomic mag. moment =     0.000000
atom   16   Tr[ns(na)] (up, down, total) =   2.81114  2.81114  5.62229
   spin  1
    eigenvalues: 
  0.937  0.937  0.938
    eigenvectors:
  0.459  0.207  0.333
  0.538  0.129  0.333
  0.003  0.664  0.333
    occupations:
  0.937  0.000  0.000
  0.000  0.937  0.000
  0.000  0.000  0.937
   spin  2
    eigenvalues: 
  0.937  0.937  0.938
    eigenvectors:
  0.422  0.245  0.333
  0.567  0.099  0.333
  0.011  0.656  0.333
    occupations:
  0.937  0.000  0.000
  0.000  0.937  0.000
  0.000  0.000  0.937
atomic mag. moment =     0.000000
N of occupied +U levels = 114.6264629
 --- exit write_ns ---
 Atomic wfc used for LDA+U Projector are NOT orthogonalized
     Starting wfc from file

     total cpu time spent up to now is       16.4 secs

     per-process dynamical memory:    86.3 Mb

     Self-consistent Calculation

     iteration #  1     ecut=    30.00 Ry     beta=0.30
     Davidson diagonalization with overlap
     c_bands:  1 eigenvalues not converged
     c_bands:  1 eigenvalues not converged
     ethr =  2.18E-11,  avg # of iterations = 14.4
 --- enter write_ns ---
 LDA+U parameters:
U( 1)     =  0.00000000
alpha( 1) =  0.00000000
U( 2)     =  0.00000000
alpha( 2) =  0.00000000
U( 3)     =  0.00000000
alpha( 3) =  0.07000000
U( 4)     =  0.00000000
alpha( 4) =  0.00000000
atom    1   Tr[ns(na)] (up, down, total) =   4.95241  3.75472  8.70713
   spin  1
    eigenvalues: 
  0.980  0.980  0.997  0.997  0.997
    eigenvectors:
  1.000  0.000  0.000  0.000  0.000
  0.000  0.000  0.500  0.170  0.330
  0.000  0.000  0.500  0.170  0.330
  0.000  1.000  0.000  0.000  0.000
  0.000  0.000  0.000  0.660  0.340
    occupations:
  0.980  0.000  0.000  0.000  0.000
  0.000  0.997  0.000  0.000  0.000
  0.000  0.000  0.997  0.000  0.000
  0.000  0.000  0.000  0.980  0.000
  0.000  0.000  0.000  0.000  0.997
   spin  2
    eigenvalues: 
  0.384  0.385  0.995  0.995  0.995
    eigenvectors:
  0.000  1.000  0.000  0.000  0.000
  0.000  0.000  0.500  0.171  0.329
  0.000  0.000  0.500  0.171  0.329
  1.000  0.000  0.000  0.000  0.000
  0.000  0.000  0.000  0.657  0.343
    occupations:
  0.385  0.001  0.001  0.000  0.001
  0.001  0.995  0.000  0.001  0.000
  0.001  0.000  0.995 -0.001  0.000
  0.000  0.001 -0.001  0.384  0.000
  0.001  0.000  0.000  0.000  0.995
atomic mag. moment =     1.197686
atom    2   Tr[ns(na)] (up, down, total) =   4.95241  3.75472  8.70713
   spin  1
    eigenvalues: 
  0.980  0.980  0.997  0.997  0.997
    eigenvectors:
  0.250  0.750  0.000  0.000  0.000
  0.000  0.000  0.000  0.660  0.340
  0.000  0.000  0.500  0.170  0.330
  0.750  0.250  0.000  0.000  0.000
  0.000  0.000  0.500  0.170  0.330
    occupations:
  0.980  0.000  0.000  0.000  0.000
  0.000  0.997  0.000  0.000  0.000
  0.000  0.000  0.997  0.000  0.000
  0.000  0.000  0.000  0.980  0.000
  0.000  0.000  0.000  0.000  0.997
   spin  2
    eigenvalues: 
  0.384  0.385  0.995  0.995  0.995
    eigenvectors:
  0.750  0.250  0.000  0.000  0.000
  0.000  0.000  0.000  0.657  0.343
  0.000  0.000  0.500  0.171  0.329
  0.250  0.750  0.000  0.000  0.000
  0.000  0.000  0.500  0.171  0.329
    occupations:
  0.384  0.001  0.001  0.000  0.001
  0.001  0.995  0.000  0.001  0.000
  0.001  0.000  0.995 -0.001  0.000
  0.000  0.001 -0.001  0.385  0.000
  0.001  0.000  0.000  0.000  0.995
atomic mag. moment =     1.197686
atom    3   Tr[ns(na)] (up, down, total) =   4.95241  3.75472  8.70713
   spin  1
    eigenvalues: 
  0.980  0.980  0.997  0.997  0.997
    eigenvectors:
  0.250  0.750  0.000  0.000  0.000
  0.000  0.000  0.500  0.170  0.330
  0.000  0.000  0.000  0.660  0.340
  0.750  0.250  0.000  0.000  0.000
  0.000  0.000  0.500  0.170  0.330
    occupations:
  0.980  0.000  0.000  0.000  0.000
  0.000  0.997  0.000  0.000  0.000
  0.000  0.000  0.997  0.000  0.000
  0.000  0.000  0.000  0.980  0.000
  0.000  0.000  0.000  0.000  0.997
   spin  2
    eigenvalues: 
  0.384  0.385  0.995  0.995  0.995
    eigenvectors:
  0.750  0.250  0.000  0.000  0.000
  0.000  0.000  0.500  0.171  0.329
  0.000  0.000  0.000  0.657  0.343
  0.250  0.750  0.000  0.000  0.000
  0.000  0.000  0.500  0.171  0.329
    occupations:
  0.384  0.001  0.001  0.000  0.001
  0.001  0.995  0.000  0.001  0.000
  0.001  0.000  0.995 -0.001  0.000
  0.000  0.001 -0.001  0.385  0.000
  0.001  0.000  0.000  0.000  0.995
atomic mag. moment =     1.197686
atom    4   Tr[ns(na)] (up, down, total) =   4.95241  3.75361  8.70602
   spin  1
    eigenvalues: 
  0.980  0.980  0.997  0.997  0.997
    eigenvectors:
  0.245  0.755  0.000  0.000  0.000
  0.000  0.000  0.102  0.565  0.333
  0.000  0.000  0.241  0.425  0.333
  0.755  0.245  0.000  0.000  0.000
  0.000  0.000  0.657  0.010  0.333
    occupations:
  0.980  0.000  0.000  0.000  0.000
  0.000  0.997  0.000  0.000  0.000
  0.000  0.000  0.997  0.000  0.000
  0.000  0.000  0.000  0.980  0.000
  0.000  0.000  0.000  0.000  0.997
   spin  2
    eigenvalues: 
  0.384  0.384  0.995  0.995  0.995
    eigenvectors:
  0.256  0.744  0.000  0.000  0.000
  0.000  0.000  0.111  0.556  0.333
  0.000  0.000  0.229  0.437  0.333
  0.744  0.256  0.000  0.000  0.000
  0.000  0.000  0.660  0.007  0.333
    occupations:
  0.384  0.001  0.001  0.000  0.001
  0.001  0.995  0.000  0.001  0.000
  0.001  0.000  0.995 -0.001  0.000
  0.000  0.001 -0.001  0.384  0.000
  0.001  0.000  0.000  0.000  0.995
atomic mag. moment =     1.198798
atom    5   Tr[ns(na)] (up, down, total) =   3.75364  4.95241  8.70605
   spin  1
    eigenvalues: 
  0.384  0.384  0.995  0.995  0.995
    eigenvectors:
  0.071  0.929  0.000  0.000  0.000
  0.000  0.000  0.074  0.593  0.333
  0.000  0.000  0.282  0.385  0.333
  0.929  0.071  0.000  0.000  0.000
  0.000  0.000  0.644  0.022  0.333
    occupations:
  0.384  0.001  0.001  0.000  0.001
  0.001  0.995  0.000  0.001  0.000
  0.001  0.000  0.995 -0.001  0.000
  0.000  0.001 -0.001  0.384  0.000
  0.001  0.000  0.000  0.000  0.995
   spin  2
    eigenvalues: 
  0.980  0.980  0.997  0.997  0.997
    eigenvectors:
  0.184  0.816  0.000  0.000  0.000
  0.000  0.000  0.123  0.544  0.333
  0.000  0.000  0.214  0.452  0.333
  0.816  0.184  0.000  0.000  0.000
  0.000  0.000  0.662  0.004  0.333
    occupations:
  0.980  0.000  0.000  0.000  0.000
  0.000  0.997  0.000  0.000  0.000
  0.000  0.000  0.997  0.000  0.000
  0.000  0.000  0.000  0.980  0.000
  0.000  0.000  0.000  0.000  0.997
atomic mag. moment =    -1.198778
atom    6   Tr[ns(na)] (up, down, total) =   3.75471  4.95240  8.70711
   spin  1
    eigenvalues: 
  0.384  0.385  0.995  0.995  0.995
    eigenvectors:
  0.750  0.250  0.000  0.000  0.000
  0.000  0.000  0.500  0.171  0.329
  0.000  0.000  0.000  0.658  0.342
  0.250  0.750  0.000  0.000  0.000
  0.000  0.000  0.500  0.171  0.329
    occupations:
  0.384  0.001  0.001  0.000  0.001
  0.001  0.995  0.000  0.001  0.000
  0.001  0.000  0.995 -0.001  0.000
  0.000  0.001 -0.001  0.385  0.000
  0.001  0.000  0.000  0.000  0.995
   spin  2
    eigenvalues: 
  0.980  0.980  0.997  0.997  0.997
    eigenvectors:
  0.250  0.750  0.000  0.000  0.000
  0.000  0.000  0.500  0.171  0.329
  0.000  0.000  0.000  0.659  0.341
  0.750  0.250  0.000  0.000  0.000
  0.000  0.000  0.500  0.171  0.329
    occupations:
  0.980  0.000  0.000  0.000  0.000
  0.000  0.997  0.000  0.000  0.000
  0.000  0.000  0.997  0.000  0.000
  0.000  0.000  0.000  0.980  0.000
  0.000  0.000  0.000  0.000  0.997
atomic mag. moment =    -1.197695
atom    7   Tr[ns(na)] (up, down, total) =   3.75471  4.95240  8.70711
   spin  1
    eigenvalues: 
  0.384  0.385  0.995  0.995  0.995
    eigenvectors:
  0.750  0.250  0.000  0.000  0.000
  0.000  0.000  0.000  0.658  0.342
  0.000  0.000  0.500  0.171  0.329
  0.250  0.750  0.000  0.000  0.000
  0.000  0.000  0.500  0.171  0.329
    occupations:
  0.384  0.001  0.001  0.000  0.001
  0.001  0.995  0.000  0.001  0.000
  0.001  0.000  0.995 -0.001  0.000
  0.000  0.001 -0.001  0.385  0.000
  0.001  0.000  0.000  0.000  0.995
   spin  2
    eigenvalues: 
  0.980  0.980  0.997  0.997  0.997
    eigenvectors:
  0.250  0.750  0.000  0.000  0.000
  0.000  0.000  0.000  0.659  0.341
  0.000  0.000  0.500  0.171  0.329
  0.750  0.250  0.000  0.000  0.000
  0.000  0.000  0.500  0.171  0.329
    occupations:
  0.980  0.000  0.000  0.000  0.000
  0.000  0.997  0.000  0.000  0.000
  0.000  0.000  0.997  0.000  0.000
  0.000  0.000  0.000  0.980  0.000
  0.000  0.000  0.000  0.000  0.997
atomic mag. moment =    -1.197695
atom    8   Tr[ns(na)] (up, down, total) =   3.75471  4.95240  8.70711
   spin  1
    eigenvalues: 
  0.384  0.385  0.995  0.995  0.995
    eigenvectors:
  0.000  1.000  0.000  0.000  0.000
  0.000  0.000  0.500  0.171  0.329
  0.000  0.000  0.500  0.171  0.329
  1.000  0.000  0.000  0.000  0.000
  0.000  0.000  0.000  0.658  0.342
    occupations:
  0.385  0.001  0.001  0.000  0.001
  0.001  0.995  0.000  0.001  0.000
  0.001  0.000  0.995 -0.001  0.000
  0.000  0.001 -0.001  0.384  0.000
  0.001  0.000  0.000  0.000  0.995
   spin  2
    eigenvalues: 
  0.980  0.980  0.997  0.997  0.997
    eigenvectors:
  1.000  0.000  0.000  0.000  0.000
  0.000  0.000  0.500  0.171  0.329
  0.000  0.000  0.500  0.171  0.329
  0.000  1.000  0.000  0.000  0.000
  0.000  0.000  0.000  0.659  0.341
    occupations:
  0.980  0.000  0.000  0.000  0.000
  0.000  0.997  0.000  0.000  0.000
  0.000  0.000  0.997  0.000  0.000
  0.000  0.000  0.000  0.980  0.000
  0.000  0.000  0.000  0.000  0.997
atomic mag. moment =    -1.197695
atom    9   Tr[ns(na)] (up, down, total) =   2.80797  2.80796  5.61593
   spin  1
    eigenvalues: 
  0.936  0.936  0.937
    eigenvectors:
  0.414  0.253  0.333
  0.573  0.094  0.333
  0.013  0.654  0.333
    occupations:
  0.936  0.000  0.000
  0.000  0.936  0.000
  0.000  0.000  0.936
   spin  2
    eigenvalues: 
  0.936  0.936  0.937
    eigenvectors:
  0.411  0.255  0.333
  0.575  0.092  0.333
  0.014  0.653  0.333
    occupations:
  0.936  0.000  0.000
  0.000  0.936  0.000
  0.000  0.000  0.936
atomic mag. moment =     0.000002
atom   10   Tr[ns(na)] (up, down, total) =   2.81115  2.81115  5.62230
   spin  1
    eigenvalues: 
  0.937  0.937  0.938
    eigenvectors:
  0.661  0.000  0.339
  0.170  0.500  0.330
  0.170  0.500  0.330
    occupations:
  0.937  0.000  0.000
  0.000  0.937  0.000
  0.000  0.000  0.937
   spin  2
    eigenvalues: 
  0.937  0.937  0.938
    eigenvectors:
  0.660  0.000  0.340
  0.170  0.500  0.330
  0.170  0.500  0.330
    occupations:
  0.937  0.000  0.000
  0.000  0.937  0.000
  0.000  0.000  0.937
atomic mag. moment =     0.000000
atom   11   Tr[ns(na)] (up, down, total) =   2.81115  2.81115  5.62230
   spin  1
    eigenvalues: 
  0.937  0.937  0.938
    eigenvectors:
  0.170  0.500  0.330
  0.661  0.000  0.339
  0.170  0.500  0.330
    occupations:
  0.937  0.000  0.000
  0.000  0.937  0.000
  0.000  0.000  0.937
   spin  2
    eigenvalues: 
  0.937  0.937  0.938
    eigenvectors:
  0.170  0.500  0.330
  0.660  0.000  0.340
  0.170  0.500  0.330
    occupations:
  0.937  0.000  0.000
  0.000  0.937  0.000
  0.000  0.000  0.937
atomic mag. moment =     0.000000
atom   12   Tr[ns(na)] (up, down, total) =   2.81115  2.81115  5.62230
   spin  1
    eigenvalues: 
  0.937  0.937  0.938
    eigenvectors:
  0.170  0.500  0.330
  0.170  0.500  0.330
  0.661  0.000  0.339
    occupations:
  0.937  0.000  0.000
  0.000  0.937  0.000
  0.000  0.000  0.937
   spin  2
    eigenvalues: 
  0.937  0.937  0.938
    eigenvectors:
  0.170  0.500  0.330
  0.170  0.500  0.330
  0.660  0.000  0.340
    occupations:
  0.937  0.000  0.000
  0.000  0.937  0.000
  0.000  0.000  0.937
atomic mag. moment =     0.000000
atom   13   Tr[ns(na)] (up, down, total) =   2.81114  2.81114  5.62229
   spin  1
    eigenvalues: 
  0.937  0.937  0.938
    eigenvectors:
  0.500  0.164  0.336
  0.000  0.671  0.329
  0.500  0.164  0.336
    occupations:
  0.937  0.000  0.000
  0.000  0.937  0.000
  0.000  0.000  0.937
   spin  2
    eigenvalues: 
  0.937  0.937  0.938
    eigenvectors:
  0.500  0.165  0.335
  0.000  0.671  0.329
  0.500  0.165  0.335
    occupations:
  0.937  0.000  0.000
  0.000  0.937  0.000
  0.000  0.000  0.937
atomic mag. moment =     0.000000
atom   14   Tr[ns(na)] (up, down, total) =   2.81114  2.81114  5.62229
   spin  1
    eigenvalues: 
  0.937  0.937  0.938
    eigenvectors:
  0.500  0.164  0.336
  0.500  0.164  0.336
  0.000  0.671  0.329
    occupations:
  0.937  0.000  0.000
  0.000  0.937  0.000
  0.000  0.000  0.937
   spin  2
    eigenvalues: 
  0.937  0.937  0.938
    eigenvectors:
  0.500  0.165  0.335
  0.500  0.165  0.335
  0.000  0.671  0.329
    occupations:
  0.937  0.000  0.000
  0.000  0.937  0.000
  0.000  0.000  0.937
atomic mag. moment =     0.000000
atom   15   Tr[ns(na)] (up, down, total) =   2.81114  2.81114  5.62229
   spin  1
    eigenvalues: 
  0.937  0.937  0.938
    eigenvectors:
  0.000  0.671  0.329
  0.500  0.164  0.336
  0.500  0.164  0.336
    occupations:
  0.937  0.000  0.000
  0.000  0.937  0.000
  0.000  0.000  0.937
   spin  2
    eigenvalues: 
  0.937  0.937  0.938
    eigenvectors:
  0.000  0.671  0.329
  0.500  0.165  0.335
  0.500  0.165  0.335
    occupations:
  0.937  0.000  0.000
  0.000  0.937  0.000
  0.000  0.000  0.937
atomic mag. moment =     0.000000
atom   16   Tr[ns(na)] (up, down, total) =   2.81141  2.81141  5.62282
   spin  1
    eigenvalues: 
  0.937  0.937  0.938
    eigenvectors:
  0.427  0.240  0.333
  0.564  0.103  0.333
  0.009  0.657  0.333
    occupations:
  0.937  0.000  0.000
  0.000  0.937  0.000
  0.000  0.000  0.937
   spin  2
    eigenvalues: 
  0.937  0.937  0.938
    eigenvectors:
  0.457  0.209  0.333
  0.539  0.128  0.333
  0.003  0.663  0.333
    occupations:
  0.937  0.000  0.000
  0.000  0.937  0.000
  0.000  0.000  0.937
atomic mag. moment =     0.000002
N of occupied +U levels = 114.6273069
 --- exit write_ns ---

     total cpu time spent up to now is       79.5 secs

     total energy              =    -941.98716657 Ry
     Harris-Foulkes estimate   =    -941.98719101 Ry
     estimated scf accuracy    <       0.00005387 Ry

     total magnetization       =     0.00 Bohr mag/cell
     absolute magnetization    =    12.28 Bohr mag/cell

     iteration #  2     ecut=    30.00 Ry     beta=0.30
     Davidson diagonalization with overlap
     ethr =  4.21E-08,  avg # of iterations =  2.0

     total cpu time spent up to now is      116.6 secs

     total energy              =    -941.98717917 Ry
     Harris-Foulkes estimate   =    -941.98718342 Ry
     estimated scf accuracy    <       0.00001287 Ry

     total magnetization       =     0.00 Bohr mag/cell
     absolute magnetization    =    12.29 Bohr mag/cell

     iteration #  3     ecut=    30.00 Ry     beta=0.30
     Davidson diagonalization with overlap
     ethr =  1.01E-08,  avg # of iterations =  2.0

     total cpu time spent up to now is      152.6 secs

     total energy              =    -941.98718109 Ry
     Harris-Foulkes estimate   =    -941.98718112 Ry
     estimated scf accuracy    <       0.00000019 Ry

     total magnetization       =     0.00 Bohr mag/cell
     absolute magnetization    =    12.29 Bohr mag/cell

     iteration #  4     ecut=    30.00 Ry     beta=0.30
     Davidson diagonalization with overlap
     ethr =  1.47E-10,  avg # of iterations =  2.0

     total cpu time spent up to now is      189.2 secs

     total energy              =    -941.98718112 Ry
     Harris-Foulkes estimate   =    -941.98718112 Ry
     estimated scf accuracy    <       0.00000007 Ry

     total magnetization       =     0.00 Bohr mag/cell
     absolute magnetization    =    12.29 Bohr mag/cell

     iteration #  5     ecut=    30.00 Ry     beta=0.30
     Davidson diagonalization with overlap
     ethr =  5.74E-11,  avg # of iterations =  1.2

     total cpu time spent up to now is      224.1 secs

     total energy              =    -941.98718112 Ry
     Harris-Foulkes estimate   =    -941.98718112 Ry
     estimated scf accuracy    <       0.00000002 Ry

     total magnetization       =     0.00 Bohr mag/cell
     absolute magnetization    =    12.29 Bohr mag/cell

     iteration #  6     ecut=    30.00 Ry     beta=0.30
     Davidson diagonalization with overlap
     ethr =  1.32E-11,  avg # of iterations =  1.7

     total cpu time spent up to now is      259.3 secs

     End of self-consistent calculation
 --- enter write_ns ---
 LDA+U parameters:
U( 1)     =  0.00000000
alpha( 1) =  0.00000000
U( 2)     =  0.00000000
alpha( 2) =  0.00000000
U( 3)     =  0.00000000
alpha( 3) =  0.07000000
U( 4)     =  0.00000000
alpha( 4) =  0.00000000
atom    1   Tr[ns(na)] (up, down, total) =   4.95240  3.75410  8.70650
   spin  1
    eigenvalues: 
  0.980  0.980  0.997  0.997  0.997
    eigenvectors:
  1.000  0.000  0.000  0.000  0.000
  0.000  0.000  0.156  0.500  0.344
  0.000  0.000  0.156  0.500  0.344
  0.000  1.000  0.000  0.000  0.000
  0.000  0.000  0.688  0.000  0.312
    occupations:
  0.980  0.000  0.000  0.000  0.000
  0.000  0.997  0.000  0.000  0.000
  0.000  0.000  0.997  0.000  0.000
  0.000  0.000  0.000  0.980  0.000
  0.000  0.000  0.000  0.000  0.997
   spin  2
    eigenvalues: 
  0.384  0.384  0.995  0.995  0.995
    eigenvectors:
  0.000  1.000  0.000  0.000  0.000
  0.000  0.000  0.166  0.500  0.334
  0.000  0.000  0.166  0.500  0.334
  1.000  0.000  0.000  0.000  0.000
  0.000  0.000  0.668  0.000  0.332
    occupations:
  0.384  0.001  0.001  0.000  0.001
  0.001  0.995  0.000  0.001  0.000
  0.001  0.000  0.995 -0.001  0.000
  0.000  0.001 -0.001  0.384  0.000
  0.001  0.000  0.000  0.000  0.995
atomic mag. moment =     1.198305
atom    2   Tr[ns(na)] (up, down, total) =   4.95240  3.75410  8.70650
   spin  1
    eigenvalues: 
  0.980  0.980  0.997  0.997  0.997
    eigenvectors:
  0.250  0.750  0.000  0.000  0.000
  0.000  0.000  0.688  0.000  0.312
  0.000  0.000  0.156  0.500  0.344
  0.750  0.250  0.000  0.000  0.000
  0.000  0.000  0.156  0.500  0.344
    occupations:
  0.980  0.000  0.000  0.000  0.000
  0.000  0.997  0.000  0.000  0.000
  0.000  0.000  0.997  0.000  0.000
  0.000  0.000  0.000  0.980  0.000
  0.000  0.000  0.000  0.000  0.997
   spin  2
    eigenvalues: 
  0.384  0.384  0.995  0.995  0.995
    eigenvectors:
  0.750  0.250  0.000  0.000  0.000
  0.000  0.000  0.668  0.000  0.332
  0.000  0.000  0.166  0.500  0.334
  0.250  0.750  0.000  0.000  0.000
  0.000  0.000  0.166  0.500  0.334
    occupations:
  0.384  0.001  0.001  0.000  0.001
  0.001  0.995  0.000  0.001  0.000
  0.001  0.000  0.995 -0.001  0.000
  0.000  0.001 -0.001  0.384  0.000
  0.001  0.000  0.000  0.000  0.995
atomic mag. moment =     1.198305
atom    3   Tr[ns(na)] (up, down, total) =   4.95240  3.75410  8.70650
   spin  1
    eigenvalues: 
  0.980  0.980  0.997  0.997  0.997
    eigenvectors:
  0.250  0.750  0.000  0.000  0.000
  0.000  0.000  0.156  0.500  0.344
  0.000  0.000  0.688  0.000  0.312
  0.750  0.250  0.000  0.000  0.000
  0.000  0.000  0.156  0.500  0.344
    occupations:
  0.980  0.000  0.000  0.000  0.000
  0.000  0.997  0.000  0.000  0.000
  0.000  0.000  0.997  0.000  0.000
  0.000  0.000  0.000  0.980  0.000
  0.000  0.000  0.000  0.000  0.997
   spin  2
    eigenvalues: 
  0.384  0.384  0.995  0.995  0.995
    eigenvectors:
  0.750  0.250  0.000  0.000  0.000
  0.000  0.000  0.166  0.500  0.334
  0.000  0.000  0.668  0.000  0.332
  0.250  0.750  0.000  0.000  0.000
  0.000  0.000  0.166  0.500  0.334
    occupations:
  0.384  0.001  0.001  0.000  0.001
  0.001  0.995  0.000  0.001  0.000
  0.001  0.000  0.995 -0.001  0.000
  0.000  0.001 -0.001  0.384  0.000
  0.001  0.000  0.000  0.000  0.995
atomic mag. moment =     1.198305
atom    4   Tr[ns(na)] (up, down, total) =   4.95242  3.75362  8.70604
   spin  1
    eigenvalues: 
  0.980  0.980  0.997  0.997  0.997
    eigenvectors:
  0.153  0.847  0.000  0.000  0.000
  0.000  0.000  0.194  0.472  0.333
  0.000  0.000  0.140  0.526  0.333
  0.847  0.153  0.000  0.000  0.000
  0.000  0.000  0.665  0.001  0.333
    occupations:
  0.980  0.000  0.000  0.000  0.000
  0.000  0.997  0.000  0.000  0.000
  0.000  0.000  0.997  0.000  0.000
  0.000  0.000  0.000  0.980  0.000
  0.000  0.000  0.000  0.000  0.997
   spin  2
    eigenvalues: 
  0.384  0.384  0.995  0.995  0.995
    eigenvectors:
  0.324  0.676  0.000  0.000  0.000
  0.000  0.000  0.127  0.539  0.333
  0.000  0.000  0.209  0.457  0.333
  0.676  0.324  0.000  0.000  0.000
  0.000  0.000  0.663  0.003  0.333
    occupations:
  0.384  0.001  0.001  0.000  0.001
  0.001  0.995  0.000  0.001  0.000
  0.001  0.000  0.995 -0.001  0.000
  0.000  0.001 -0.001  0.384  0.000
  0.001  0.000  0.000  0.000  0.995
atomic mag. moment =     1.198792
atom    5   Tr[ns(na)] (up, down, total) =   3.75358  4.95241  8.70598
   spin  1
    eigenvalues: 
  0.384  0.384  0.995  0.995  0.995
    eigenvectors:
  0.132  0.868  0.000  0.000  0.000
  0.000  0.000  0.082  0.585  0.333
  0.000  0.000  0.270  0.397  0.333
  0.868  0.132  0.000  0.000  0.000
  0.000  0.000  0.648  0.018  0.333
    occupations:
  0.384  0.001  0.001  0.000  0.001
  0.001  0.995  0.000  0.001  0.000
  0.001  0.000  0.995 -0.001  0.000
  0.000  0.001 -0.001  0.384  0.000
  0.001  0.000  0.000  0.000  0.995
   spin  2
    eigenvalues: 
  0.980  0.980  0.997  0.997  0.997
    eigenvectors:
  0.160  0.840  0.000  0.000  0.000
  0.000  0.000  0.125  0.541  0.333
  0.000  0.000  0.212  0.455  0.333
  0.840  0.160  0.000  0.000  0.000
  0.000  0.000  0.663  0.004  0.333
    occupations:
  0.980  0.000  0.000  0.000  0.000
  0.000  0.997  0.000  0.000  0.000
  0.000  0.000  0.997  0.000  0.000
  0.000  0.000  0.000  0.980  0.000
  0.000  0.000  0.000  0.000  0.997
atomic mag. moment =    -1.198830
atom    6   Tr[ns(na)] (up, down, total) =   3.75412  4.95241  8.70652
   spin  1
    eigenvalues: 
  0.384  0.384  0.995  0.995  0.995
    eigenvectors:
  0.750  0.250  0.000  0.000  0.000
  0.000  0.000  0.167  0.500  0.333
  0.000  0.000  0.667  0.000  0.333
  0.250  0.750  0.000  0.000  0.000
  0.000  0.000  0.167  0.500  0.333
    occupations:
  0.384  0.001  0.001  0.000  0.001
  0.001  0.995  0.000  0.001  0.000
  0.001  0.000  0.995 -0.001  0.000
  0.000  0.001 -0.001  0.384  0.000
  0.001  0.000  0.000  0.000  0.995
   spin  2
    eigenvalues: 
  0.980  0.980  0.997  0.997  0.997
    eigenvectors:
  0.250  0.750  0.000  0.000  0.000
  0.000  0.000  0.154  0.500  0.346
  0.000  0.000  0.691  0.000  0.309
  0.750  0.250  0.000  0.000  0.000
  0.000  0.000  0.154  0.500  0.346
    occupations:
  0.980  0.000  0.000  0.000  0.000
  0.000  0.997  0.000  0.000  0.000
  0.000  0.000  0.997  0.000  0.000
  0.000  0.000  0.000  0.980  0.000
  0.000  0.000  0.000  0.000  0.997
atomic mag. moment =    -1.198288
atom    7   Tr[ns(na)] (up, down, total) =   3.75412  4.95241  8.70652
   spin  1
    eigenvalues: 
  0.384  0.384  0.995  0.995  0.995
    eigenvectors:
  0.750  0.250  0.000  0.000  0.000
  0.000  0.000  0.667  0.000  0.333
  0.000  0.000  0.167  0.500  0.333
  0.250  0.750  0.000  0.000  0.000
  0.000  0.000  0.167  0.500  0.333
    occupations:
  0.384  0.001  0.001  0.000  0.001
  0.001  0.995  0.000  0.001  0.000
  0.001  0.000  0.995 -0.001  0.000
  0.000  0.001 -0.001  0.384  0.000
  0.001  0.000  0.000  0.000  0.995
   spin  2
    eigenvalues: 
  0.980  0.980  0.997  0.997  0.997
    eigenvectors:
  0.250  0.750  0.000  0.000  0.000
  0.000  0.000  0.691  0.000  0.309
  0.000  0.000  0.154  0.500  0.346
  0.750  0.250  0.000  0.000  0.000
  0.000  0.000  0.154  0.500  0.346
    occupations:
  0.980  0.000  0.000  0.000  0.000
  0.000  0.997  0.000  0.000  0.000
  0.000  0.000  0.997  0.000  0.000
  0.000  0.000  0.000  0.980  0.000
  0.000  0.000  0.000  0.000  0.997
atomic mag. moment =    -1.198288
atom    8   Tr[ns(na)] (up, down, total) =   3.75412  4.95241  8.70652
   spin  1
    eigenvalues: 
  0.384  0.384  0.995  0.995  0.995
    eigenvectors:
  0.000  1.000  0.000  0.000  0.000
  0.000  0.000  0.167  0.500  0.333
  0.000  0.000  0.167  0.500  0.333
  1.000  0.000  0.000  0.000  0.000
  0.000  0.000  0.667  0.000  0.333
    occupations:
  0.384  0.001  0.001  0.000  0.001
  0.001  0.995  0.000  0.001  0.000
  0.001  0.000  0.995 -0.001  0.000
  0.000  0.001 -0.001  0.384  0.000
  0.001  0.000  0.000  0.000  0.995
   spin  2
    eigenvalues: 
  0.980  0.980  0.997  0.997  0.997
    eigenvectors:
  1.000  0.000  0.000  0.000  0.000
  0.000  0.000  0.154  0.500  0.346
  0.000  0.000  0.154  0.500  0.346
  0.000  1.000  0.000  0.000  0.000
  0.000  0.000  0.691  0.000  0.309
    occupations:
  0.980  0.000  0.000  0.000  0.000
  0.000  0.997  0.000  0.000  0.000
  0.000  0.000  0.997  0.000  0.000
  0.000  0.000  0.000  0.980  0.000
  0.000  0.000  0.000  0.000  0.997
atomic mag. moment =    -1.198288
atom    9   Tr[ns(na)] (up, down, total) =   2.80990  2.80991  5.61981
   spin  1
    eigenvalues: 
  0.936  0.936  0.938
    eigenvectors:
  0.386  0.280  0.333
  0.592  0.075  0.333
  0.022  0.645  0.333
    occupations:
  0.937  0.000  0.000
  0.000  0.937  0.000
  0.000  0.000  0.937
   spin  2
    eigenvalues: 
  0.936  0.936  0.938
    eigenvectors:
  0.416  0.251  0.333
  0.572  0.095  0.333
  0.012  0.654  0.333
    occupations:
  0.937  0.000  0.000
  0.000  0.937  0.000
  0.000  0.000  0.937
atomic mag. moment =    -0.000004
atom   10   Tr[ns(na)] (up, down, total) =   2.81116  2.81116  5.62232
   spin  1
    eigenvalues: 
  0.937  0.937  0.938
    eigenvectors:
  0.665  0.000  0.335
  0.168  0.500  0.332
  0.168  0.500  0.332
    occupations:
  0.937  0.000  0.000
  0.000  0.937  0.000
  0.000  0.000  0.937
   spin  2
    eigenvalues: 
  0.937  0.937  0.938
    eigenvectors:
  0.666  0.000  0.334
  0.167  0.500  0.333
  0.167  0.500  0.333
    occupations:
  0.937  0.000  0.000
  0.000  0.937  0.000
  0.000  0.000  0.937
atomic mag. moment =     0.000000
atom   11   Tr[ns(na)] (up, down, total) =   2.81116  2.81116  5.62232
   spin  1
    eigenvalues: 
  0.937  0.937  0.938
    eigenvectors:
  0.168  0.500  0.332
  0.665  0.000  0.335
  0.168  0.500  0.332
    occupations:
  0.937  0.000  0.000
  0.000  0.937  0.000
  0.000  0.000  0.937
   spin  2
    eigenvalues: 
  0.937  0.937  0.938
    eigenvectors:
  0.167  0.500  0.333
  0.666  0.000  0.334
  0.167  0.500  0.333
    occupations:
  0.937  0.000  0.000
  0.000  0.937  0.000
  0.000  0.000  0.937
atomic mag. moment =     0.000000
atom   12   Tr[ns(na)] (up, down, total) =   2.81116  2.81116  5.62232
   spin  1
    eigenvalues: 
  0.937  0.937  0.938
    eigenvectors:
  0.168  0.500  0.332
  0.168  0.500  0.332
  0.665  0.000  0.335
    occupations:
  0.937  0.000  0.000
  0.000  0.937  0.000
  0.000  0.000  0.937
   spin  2
    eigenvalues: 
  0.937  0.937  0.938
    eigenvectors:
  0.167  0.500  0.333
  0.167  0.500  0.333
  0.666  0.000  0.334
    occupations:
  0.937  0.000  0.000
  0.000  0.937  0.000
  0.000  0.000  0.937
atomic mag. moment =     0.000000
atom   13   Tr[ns(na)] (up, down, total) =   2.81116  2.81116  5.62232
   spin  1
    eigenvalues: 
  0.937  0.937  0.938
    eigenvectors:
  0.500  0.165  0.335
  0.000  0.669  0.331
  0.500  0.165  0.335
    occupations:
  0.937  0.000  0.000
  0.000  0.937  0.000
  0.000  0.000  0.937
   spin  2
    eigenvalues: 
  0.937  0.937  0.938
    eigenvectors:
  0.500  0.165  0.335
  0.000  0.671  0.329
  0.500  0.165  0.335
    occupations:
  0.937  0.000  0.000
  0.000  0.937  0.000
  0.000  0.000  0.937
atomic mag. moment =     0.000000
atom   14   Tr[ns(na)] (up, down, total) =   2.81116  2.81116  5.62232
   spin  1
    eigenvalues: 
  0.937  0.937  0.938
    eigenvectors:
  0.500  0.165  0.335
  0.500  0.165  0.335
  0.000  0.669  0.331
    occupations:
  0.937  0.000  0.000
  0.000  0.937  0.000
  0.000  0.000  0.937
   spin  2
    eigenvalues: 
  0.937  0.937  0.938
    eigenvectors:
  0.500  0.165  0.335
  0.500  0.165  0.335
  0.000  0.671  0.329
    occupations:
  0.937  0.000  0.000
  0.000  0.937  0.000
  0.000  0.000  0.937
atomic mag. moment =     0.000000
atom   15   Tr[ns(na)] (up, down, total) =   2.81116  2.81116  5.62232
   spin  1
    eigenvalues: 
  0.937  0.937  0.938
    eigenvectors:
  0.000  0.669  0.331
  0.500  0.165  0.335
  0.500  0.165  0.335
    occupations:
  0.937  0.000  0.000
  0.000  0.937  0.000
  0.000  0.000  0.937
   spin  2
    eigenvalues: 
  0.937  0.937  0.938
    eigenvectors:
  0.000  0.671  0.329
  0.500  0.165  0.335
  0.500  0.165  0.335
    occupations:
  0.937  0.000  0.000
  0.000  0.937  0.000
  0.000  0.000  0.937
atomic mag. moment =     0.000000
atom   16   Tr[ns(na)] (up, down, total) =   2.81113  2.81113  5.62226
   spin  1
    eigenvalues: 
  0.937  0.937  0.938
    eigenvectors:
  0.401  0.266  0.333
  0.582  0.084  0.333
  0.017  0.650  0.333
    occupations:
  0.937  0.000  0.000
  0.000  0.937  0.000
  0.000  0.000  0.937
   spin  2
    eigenvalues: 
  0.937  0.937  0.938
    eigenvectors:
  0.356  0.311  0.333
  0.610  0.057  0.333
  0.034  0.633  0.333
    occupations:
  0.937  0.000  0.000
  0.000  0.937  0.000
  0.000  0.000  0.937
atomic mag. moment =    -0.000004
N of occupied +U levels = 114.6270560
 --- exit write_ns ---

 ------ SPIN UP ------------


          k = 0.0000 0.0000 0.0000 (  2733 PWs)   bands (ev):

    -8.0805  -6.7006  -6.6866  -6.6863  -6.6863  -6.6251  -6.6179  -6.6179
     4.0298   4.0395   4.0395   4.0436   5.3364   5.3365   5.3365   6.5250
     6.5250   6.5325   6.5402   6.5402   6.5646   6.5646   6.5747   7.9535
     7.9563   7.9563   7.9656   7.9656   7.9684   8.8325   8.8325   8.8325
     9.2604   9.2604   9.2676   9.5603   9.5603   9.6955   9.8778   9.8778
     9.9447   9.9448   9.9448  10.2298  10.2298  10.2300  10.4871  10.4871
    10.4871  10.6010  10.6011  10.6011  10.9125  10.9125  11.0406  11.0406
    11.0413  11.1804  11.2647  11.2647  11.2650  11.3839  11.3844  11.3844
    13.5457  13.5457  13.6048  13.6049  13.6049  13.6889  13.6889  13.6892
    13.7592  17.7965  17.7989  17.8001  17.8001

          k =-0.1250 0.1250 0.1250 (  2743 PWs)   bands (ev):

    -7.9047  -6.9285  -6.6912  -6.6801  -6.6800  -6.6382  -6.6313  -6.6311
     4.3499   4.3576   4.3612   4.6116   5.3493   5.3522   5.3538   6.4354
     6.4425   6.4517   6.6341   6.6752   6.6796   6.6983   6.7418   7.1966
     7.2025   7.2398   7.6886   7.6943   7.7053   7.9705   8.4030   8.4110
     9.2813   9.3380   9.3386   9.6784   9.8245   9.9619  10.0433  10.0436
    10.1116  10.2200  10.2201  10.2490  10.3746  10.5214  10.5413  10.5423
    10.5522  10.6365  10.6885  10.6892  10.8983  10.9940  11.1157  11.1164
    11.1189  11.1790  11.2595  11.2597  11.2812  11.3145  11.3432  11.3436
    13.2130  13.2793  13.2793  13.2932  13.3833  13.4210  13.4210  13.4653
    14.7662  17.5934  18.6762  18.6781  18.6787

          k = 0.2500-0.2500-0.2500 (  2764 PWs)   bands (ev):

    -7.4509  -7.4433  -6.6792  -6.6632  -6.6611  -6.6588  -6.6559  -6.6549
     5.0525   5.0571   5.0655   5.0704   5.0856   5.0867   6.0925   6.1032
     6.3236   6.3319   6.3893   6.3980   6.4639   6.4749   6.8549   6.8626
     7.0147   7.0208   7.3148   7.3188   7.4866   7.4922   7.6365   7.6450
     9.6337   9.6342   9.8185   9.8186   9.8882   9.8890  10.0237  10.0240
    10.1599  10.1606  10.2227  10.2230  10.5339  10.5351  10.6432  10.6445
    10.6598  10.6604  10.8709  10.8717  10.9646  10.9655  11.2446  11.2455
    11.2534  11.2543  11.2980  11.2989  11.3303  11.3309  11.4330  11.4346
    13.0384  13.0388  13.0449  13.0451  13.0529  13.0530  13.0634  13.0636
    16.4813  16.4828  19.6524  19.6524  19.7115

          k = 0.0000 0.0000 0.2500 (  2706 PWs)   bands (ev):

    -7.8515  -6.8096  -6.7624  -6.7510  -6.7506  -6.7505  -6.5701  -6.5645
     4.4914   4.4982   4.5018   4.5054   5.2388   5.5269   5.5269   6.5280
     6.5324   6.5527   6.5861   6.5971   6.6198   6.6279   6.6835   7.0652
     7.0654   7.1675   7.1766   7.4650   7.9745   7.9796   8.6531   8.6622
     8.9551   9.5338   9.6286   9.6286   9.8140   9.9794  10.0565  10.0567
    10.0965  10.1117  10.1860  10.2786  10.2786  10.3969  10.4110  10.5446
    10.5454  10.6136  10.6139  10.6589  10.9112  11.0083  11.0088  11.0498
    11.0559  11.1693  11.2417  11.2939  11.2943  11.3467  11.3472  11.3787
    12.8770  13.0381  13.0383  13.0415  13.5230  13.5663  13.6437  13.6440
    15.2130  18.5658  18.5674  18.5678  18.5684

          k = 0.3750-0.3750-0.1250 (  2734 PWs)   bands (ev):

    -7.5018  -7.1714  -6.9667  -6.7740  -6.7675  -6.5965  -6.5584  -6.5531
     4.9660   4.9723   4.9847   5.3114   5.4284   5.5037   5.5255   6.1779
     6.2133   6.2396   6.2695   6.5879   6.5974   6.7467   6.7523   6.8630
     6.8925   6.9257   6.9955   7.3593   7.3785   7.7223   7.7625   8.0169
     9.4558   9.6506   9.8219   9.8946   9.9553   9.9681  10.0365  10.1379
    10.1407  10.1685  10.2101  10.2874  10.3155  10.3221  10.4773  10.5113
    10.7323  10.7381  10.7417  10.7541  10.8774  10.9053  11.0390  11.0770
    11.1670  11.1944  11.2248  11.2563  11.3313  11.3350  11.3530  11.4094
    12.7375  12.7812  12.8333  12.9297  13.2346  13.2576  13.3633  13.4321
    16.6937  17.6014  18.6700  19.3618  19.3635

          k = 0.2500-0.2500 0.0000 (  2742 PWs)   bands (ev):

    -7.6398  -7.0197  -7.0132  -6.7235  -6.7169  -6.6058  -6.5998  -6.5462
     4.7755   4.7823   5.0709   5.0743   5.2653   5.2721   5.7058   5.9679
     6.2877   6.3066   6.5297   6.7217   6.7459   6.7497   6.9127   6.9194
     6.9343   7.1574   7.1669   7.1919   7.4497   7.4575   7.6332   8.1257
     9.6579   9.6586   9.7893   9.8490   9.9049   9.9056  10.0443  10.1115
    10.1337  10.2262  10.2291  10.2292  10.2298  10.3618  10.3622  10.5158
    10.7188  10.7506  10.7511  10.8278  10.9025  11.0950  11.0957  11.1137
    11.2084  11.2089  11.2313  11.2425  11.2787  11.3445  11.4048  11.4054
    13.0411  13.0456  13.0564  13.0566  13.1132  13.1505  13.1507  13.2826
    16.0069  18.0605  18.0608  19.3775  19.3781

          k = 0.0000 0.0000-0.5000 (  2762 PWs)   bands (ev):

    -7.3138  -7.3069  -6.8257  -6.8135  -6.8132  -6.8130  -6.5161  -6.5102
     5.0188   5.0256   5.0313   5.0387   5.7685   5.7792   6.0987   6.1045
     6.1107   6.1166   6.4029   6.4122   6.6502   6.6587   6.6825   6.6910
     6.7217   6.7247   6.7282   6.7463   8.1483   8.1569   8.1594   8.1680
     9.2492   9.2496   9.9501   9.9506  10.0307  10.0309  10.0457  10.0459
    10.0483  10.0500  10.1698  10.1699  10.3500  10.3503  10.4960  10.4968
    10.5184  10.5199  10.5825  10.5828  10.9116  10.9117  11.0044  11.0052
    11.1480  11.1483  11.2261  11.2269  11.3356  11.3362  11.3404  11.3408
    12.4607  12.4610  12.7191  12.7192  13.5168  13.5173  13.6167  13.6171
    17.6662  17.6664  19.2507  19.2510  19.2526

          k = 0.0000 0.2500-0.5000 (  2740 PWs)   bands (ev):

    -7.1613  -7.1480  -7.1476  -7.1473  -6.5878  -6.5765  -6.5741  -6.5713
     5.2822   5.2846   5.2925   5.3342   5.3852   5.5473   5.5479   5.6590
     6.2275   6.2577   6.2593   6.2913   6.6222   6.6246   6.6370   6.7648
     6.9035   7.2677   7.2740   7.4645   7.4808   7.5080   7.5095   7.5607
     9.7113   9.7385   9.7387   9.8066   9.9867  10.0372  10.0382  10.0695
    10.1180  10.2718  10.2882  10.2890  10.3447  10.3453  10.3992  10.4645
    10.6161  10.6631  10.6635  10.6903  10.9472  10.9478  10.9681  10.9897
    11.1735  11.1848  11.1856  11.2793  11.2946  11.2989  11.3652  11.3655
    12.7734  12.8882  12.8884  13.0019  13.1536  13.1977  13.1980  13.2426
    18.0167  18.0348  18.0363  18.0559  20.8585

          k = 0.1250 0.1250 0.1250 (  2743 PWs)   bands (ev):

    -7.9048  -6.9288  -6.6919  -6.6808  -6.6808  -6.6373  -6.6302  -6.6302
     4.3480   4.3568   4.3568   4.6166   5.3477   5.3510   5.3510   6.4788
     6.4788   6.4899   6.6216   6.6273   6.6273   6.6999   6.6999   7.2135
     7.2135   7.2239   7.7049   7.7124   7.7124   7.9767   8.4553   8.4553
     9.2625   9.2625   9.2630   9.6188   9.6188  10.0028  10.0660  10.0660
    10.0661  10.2767  10.2767  10.2772  10.6034  10.6037  10.6037  10.6234
    10.6234  10.7242  10.7250  10.7250  10.9150  10.9150  10.9408  10.9408
    10.9421  11.0335  11.2569  11.2569  11.2572  11.3943  11.3947  11.3947
    13.3339  13.3339  13.3501  13.3502  13.3502  13.3575  13.3575  13.3575
    14.7665  17.5949  18.6742  18.6757  18.6757

          k =-0.2500-0.2500-0.2500 (  2764 PWs)   bands (ev):

    -7.4530  -7.4415  -6.6827  -6.6692  -6.6692  -6.6538  -6.6489  -6.6489
     5.0104   5.0199   5.0199   5.1115   5.1231   5.1231   6.0827   6.1232
     6.2595   6.2595   6.2746   6.6898   6.6898   6.7065   6.7497   6.7556
     6.7556   6.9828   6.9828   7.4463   7.4535   7.4535   7.8672   7.8672
     9.4915   9.4916   9.4916   9.6747   9.6747  10.1174  10.1218  10.1218
    10.1221  10.4496  10.4496  10.4499  10.5079  10.5081  10.5081  10.7270
    10.7270  10.8434  10.8434  10.8457  10.8714  11.0571  11.0585  11.0585
    11.2452  11.2452  11.2455  11.3017  11.3017  11.4021  11.4025  11.4025
    13.0398  13.0398  13.0399  13.0564  13.0564  13.0710  13.0712  13.0712
    16.4091  16.5591  19.6307  19.6307  19.6307

          k =-0.3750-0.3750-0.1250 (  2734 PWs)   bands (ev):

    -7.5019  -7.1716  -6.9668  -6.7741  -6.7676  -6.5963  -6.5582  -6.5529
     4.9672   4.9745   4.9837   5.2894   5.4429   5.5021   5.5064   6.2230
     6.2261   6.2370   6.2694   6.6556   6.6681   6.6717   6.6961   6.7061
     6.8313   7.0808   7.0865   7.2722   7.3833   7.7559   7.7643   8.0535
     9.3536   9.5438   9.7606   9.7607   9.7847  10.0601  10.0963  10.0964
    10.2872  10.2884  10.4210  10.4213  10.4422  10.5538  10.5542  10.5600
    10.5700  10.6503  10.6511  10.6516  10.8419  10.8806  10.8815  10.9598
    11.0714  11.2431  11.2744  11.3013  11.3014  11.3600  11.3603  11.4229
    12.6927  12.8385  12.8838  12.8840  13.2804  13.3349  13.3423  13.3425
    16.6930  17.6040  18.6695  19.3592  19.3594

          k = 0.3750 0.3750-0.1250 (  2734 PWs)   bands (ev):

    -7.5018  -7.1715  -6.9667  -6.7739  -6.7674  -6.5966  -6.5584  -6.5531
     4.9715   4.9772   4.9844   5.2491   5.5020   5.5086   5.5114   6.1257
     6.2281   6.2383   6.3490   6.5670   6.5753   6.6639   6.8203   6.8272
     6.8319   7.0424   7.0478   7.1589   7.5068   7.7478   7.7749   8.0020
     9.3812   9.5570   9.9438   9.9439  10.0211  10.0216  10.0429  10.0446
    10.0568  10.1777  10.2141  10.2142  10.3991  10.4436  10.4978  10.4990
    10.6595  10.6975  10.6982  10.7125  10.8964  10.9487  11.0954  11.0960
    11.2159  11.2165  11.2325  11.2694  11.2768  11.2786  11.3479  11.3484
    12.7396  12.7987  12.8810  12.8812  13.2541  13.3416  13.3418  13.3535
    16.6932  17.6024  18.6717  19.3601  19.3603

          k =-0.2500-0.2500 0.0000 (  2742 PWs)   bands (ev):

    -7.6398  -7.0198  -7.0133  -6.7238  -6.7173  -6.6052  -6.5993  -6.5462
     4.7745   4.7792   5.0810   5.0872   5.2442   5.2512   5.7075   5.9707
     6.3140   6.3230   6.5884   6.6781   6.6811   6.7927   6.8599   6.9243
     7.0185   7.1598   7.1694   7.2051   7.2106   7.4894   7.8356   8.1236
     9.5570   9.6087   9.6370   9.6377   9.7745  10.0747  10.0749  10.1313
    10.2429  10.2437  10.3068  10.3859  10.4484  10.5583  10.5601  10.5610
    10.6326  10.6647  10.6656  10.7428  10.7652  10.8212  11.0494  11.0504
    11.1049  11.2705  11.2706  11.3396  11.3696  11.3698  11.3857  11.4071
    13.0442  13.0461  13.0537  13.0538  13.0632  13.2058  13.2059  13.2351
    16.0081  18.0598  18.0617  19.3730  19.3735

 ------ SPIN DOWN ----------


          k = 0.0000 0.0000 0.0000 (  2733 PWs)   bands (ev):

    -8.0805  -6.7006  -6.6866  -6.6863  -6.6863  -6.6251  -6.6179  -6.6179
     4.0298   4.0395   4.0395   4.0436   5.3364   5.3365   5.3365   6.5250
     6.5250   6.5325   6.5402   6.5402   6.5646   6.5646   6.5747   7.9535
     7.9563   7.9563   7.9656   7.9656   7.9684   8.8325   8.8325   8.8325
     9.2604   9.2604   9.2676   9.5603   9.5603   9.6955   9.8778   9.8778
     9.9446   9.9448   9.9448  10.2298  10.2298  10.2300  10.4871  10.4871
    10.4871  10.6010  10.6011  10.6011  10.9125  10.9125  11.0406  11.0406
    11.0413  11.1804  11.2647  11.2647  11.2651  11.3839  11.3844  11.3844
    13.5457  13.5457  13.6049  13.6049  13.6049  13.6889  13.6889  13.6892
    13.7592  17.7965  17.7989  17.8001  17.8001

          k =-0.1250 0.1250 0.1250 (  2743 PWs)   bands (ev):

    -7.9047  -6.9285  -6.6912  -6.6801  -6.6800  -6.6382  -6.6313  -6.6311
     4.3499   4.3576   4.3612   4.6116   5.3493   5.3522   5.3538   6.4354
     6.4425   6.4517   6.6341   6.6752   6.6797   6.6982   6.7418   7.1966
     7.2025   7.2398   7.6886   7.6943   7.7053   7.9705   8.4030   8.4110
     9.2813   9.3380   9.3386   9.6784   9.8245   9.9619  10.0433  10.0436
    10.1116  10.2200  10.2200  10.2490  10.3746  10.5214  10.5413  10.5423
    10.5522  10.6365  10.6885  10.6891  10.8984  10.9940  11.1157  11.1164
    11.1189  11.1790  11.2595  11.2597  11.2812  11.3145  11.3431  11.3437
    13.2130  13.2793  13.2794  13.2932  13.3833  13.4210  13.4211  13.4653
    14.7662  17.5934  18.6762  18.6781  18.6787

          k = 0.2500-0.2500-0.2500 (  2764 PWs)   bands (ev):

    -7.4509  -7.4433  -6.6792  -6.6632  -6.6611  -6.6588  -6.6559  -6.6549
     5.0525   5.0571   5.0655   5.0704   5.0857   5.0867   6.0925   6.1032
     6.3237   6.3319   6.3893   6.3980   6.4639   6.4749   6.8549   6.8625
     7.0147   7.0208   7.3148   7.3188   7.4866   7.4922   7.6365   7.6450
     9.6338   9.6341   9.8185   9.8186   9.8883   9.8889  10.0237  10.0239
    10.1599  10.1606  10.2228  10.2229  10.5339  10.5351  10.6433  10.6445
    10.6597  10.6605  10.8710  10.8716  10.9646  10.9654  11.2446  11.2455
    11.2533  11.2543  11.2980  11.2990  11.3302  11.3310  11.4331  11.4346
    13.0384  13.0388  13.0448  13.0452  13.0529  13.0530  13.0634  13.0636
    16.4813  16.4828  19.6524  19.6524  19.7115

          k = 0.0000 0.0000 0.2500 (  2706 PWs)   bands (ev):

    -7.8515  -6.8096  -6.7624  -6.7510  -6.7506  -6.7505  -6.5701  -6.5645
     4.4914   4.4982   4.5018   4.5054   5.2388   5.5269   5.5269   6.5280
     6.5324   6.5527   6.5861   6.5971   6.6198   6.6279   6.6834   7.0652
     7.0654   7.1675   7.1766   7.4650   7.9745   7.9796   8.6531   8.6622
     8.9551   9.5338   9.6285   9.6286   9.8140   9.9794  10.0565  10.0567
    10.0965  10.1116  10.1860  10.2786  10.2786  10.3969  10.4110  10.5446
    10.5454  10.6137  10.6138  10.6589  10.9112  11.0084  11.0088  11.0498
    11.0559  11.1693  11.2417  11.2939  11.2944  11.3466  11.3473  11.3787
    12.8770  13.0381  13.0384  13.0415  13.5231  13.5663  13.6436  13.6441
    15.2130  18.5658  18.5674  18.5678  18.5684

          k = 0.3750-0.3750-0.1250 (  2734 PWs)   bands (ev):

    -7.5018  -7.1714  -6.9667  -6.7740  -6.7675  -6.5965  -6.5584  -6.5531
     4.9660   4.9723   4.9847   5.3114   5.4284   5.5037   5.5255   6.1779
     6.2133   6.2396   6.2695   6.5879   6.5974   6.7467   6.7523   6.8630
     6.8925   6.9257   6.9955   7.3593   7.3785   7.7223   7.7625   8.0169
     9.4558   9.6506   9.8219   9.8946   9.9553   9.9680  10.0365  10.1379
    10.1406  10.1684  10.2101  10.2874  10.3155  10.3221  10.4773  10.5112
    10.7323  10.7381  10.7417  10.7541  10.8774  10.9053  11.0391  11.0770
    11.1670  11.1944  11.2248  11.2563  11.3314  11.3350  11.3530  11.4095
    12.7375  12.7813  12.8333  12.9297  13.2346  13.2576  13.3633  13.4322
    16.6937  17.6014  18.6700  19.3618  19.3635

          k = 0.2500-0.2500 0.0000 (  2742 PWs)   bands (ev):

    -7.6398  -7.0197  -7.0132  -6.7235  -6.7169  -6.6058  -6.5998  -6.5462
     4.7755   4.7823   5.0709   5.0743   5.2653   5.2721   5.7058   5.9679
     6.2877   6.3066   6.5297   6.7217   6.7459   6.7497   6.9127   6.9193
     6.9343   7.1574   7.1669   7.1919   7.4497   7.4576   7.6332   8.1257
     9.6578   9.6586   9.7893   9.8490   9.9050   9.9056  10.0443  10.1115
    10.1337  10.2262  10.2291  10.2292  10.2297  10.3618  10.3622  10.5158
    10.7188  10.7506  10.7510  10.8278  10.9025  11.0950  11.0957  11.1137
    11.2083  11.2090  11.2313  11.2425  11.2788  11.3446  11.4048  11.4053
    13.0411  13.0456  13.0564  13.0566  13.1132  13.1505  13.1507  13.2826
    16.0069  18.0605  18.0608  19.3775  19.3781

          k = 0.0000 0.0000-0.5000 (  2762 PWs)   bands (ev):

    -7.3138  -7.3069  -6.8257  -6.8135  -6.8132  -6.8130  -6.5161  -6.5102
     5.0188   5.0256   5.0313   5.0387   5.7685   5.7792   6.0987   6.1044
     6.1107   6.1166   6.4029   6.4122   6.6502   6.6586   6.6825   6.6910
     6.7218   6.7247   6.7282   6.7463   8.1483   8.1569   8.1594   8.1680
     9.2492   9.2496   9.9501   9.9506  10.0306  10.0309  10.0458  10.0458
    10.0483  10.0500  10.1698  10.1699  10.3501  10.3503  10.4960  10.4968
    10.5184  10.5199  10.5826  10.5827  10.9116  10.9116  11.0044  11.0052
    11.1480  11.1483  11.2261  11.2269  11.3355  11.3363  11.3404  11.3409
    12.4607  12.4610  12.7190  12.7193  13.5168  13.5174  13.6167  13.6171
    17.6662  17.6664  19.2507  19.2510  19.2526

          k = 0.0000 0.2500-0.5000 (  2740 PWs)   bands (ev):

    -7.1613  -7.1480  -7.1476  -7.1473  -6.5878  -6.5765  -6.5741  -6.5713
     5.2822   5.2846   5.2925   5.3342   5.3852   5.5473   5.5479   5.6590
     6.2275   6.2577   6.2593   6.2913   6.6222   6.6246   6.6369   6.7648
     6.9035   7.2677   7.2740   7.4645   7.4808   7.5080   7.5095   7.5607
     9.7113   9.7385   9.7387   9.8066   9.9867  10.0372  10.0382  10.0695
    10.1180  10.2718  10.2882  10.2889  10.3447  10.3453  10.3992  10.4645
    10.6161  10.6631  10.6634  10.6903  10.9472  10.9478  10.9681  10.9897
    11.1735  11.1847  11.1857  11.2793  11.2946  11.2989  11.3652  11.3656
    12.7734  12.8882  12.8884  13.0020  13.1537  13.1977  13.1981  13.2427
    18.0167  18.0348  18.0363  18.0559  20.8585

          k = 0.1250 0.1250 0.1250 (  2743 PWs)   bands (ev):

    -7.9048  -6.9288  -6.6919  -6.6808  -6.6808  -6.6373  -6.6302  -6.6302
     4.3480   4.3568   4.3568   4.6166   5.3477   5.3510   5.3510   6.4788
     6.4788   6.4899   6.6216   6.6273   6.6273   6.6999   6.6999   7.2135
     7.2135   7.2239   7.7049   7.7124   7.7124   7.9767   8.4553   8.4553
     9.2625   9.2625   9.2630   9.6188   9.6188  10.0028  10.0660  10.0660
    10.0660  10.2767  10.2767  10.2772  10.6034  10.6037  10.6037  10.6234
    10.6234  10.7242  10.7250  10.7250  10.9150  10.9150  10.9408  10.9408
    10.9421  11.0335  11.2569  11.2569  11.2573  11.3943  11.3948  11.3948
    13.3339  13.3339  13.3502  13.3502  13.3502  13.3575  13.3575  13.3576
    14.7665  17.5949  18.6742  18.6757  18.6757

          k =-0.2500-0.2500-0.2500 (  2764 PWs)   bands (ev):

    -7.4530  -7.4415  -6.6827  -6.6692  -6.6692  -6.6538  -6.6489  -6.6489
     5.0104   5.0199   5.0199   5.1115   5.1231   5.1231   6.0827   6.1232
     6.2595   6.2595   6.2745   6.6898   6.6898   6.7065   6.7497   6.7556
     6.7556   6.9828   6.9828   7.4463   7.4535   7.4535   7.8672   7.8672
     9.4915   9.4916   9.4916   9.6747   9.6747  10.1173  10.1218  10.1218
    10.1220  10.4496  10.4496  10.4499  10.5079  10.5081  10.5081  10.7270
    10.7270  10.8434  10.8434  10.8457  10.8715  11.0570  11.0585  11.0585
    11.2452  11.2452  11.2456  11.3017  11.3017  11.4020  11.4026  11.4026
    13.0398  13.0398  13.0400  13.0564  13.0564  13.0710  13.0712  13.0712
    16.4091  16.5591  19.6307  19.6307  19.6307

          k =-0.3750-0.3750-0.1250 (  2734 PWs)   bands (ev):

    -7.5019  -7.1716  -6.9668  -6.7741  -6.7676  -6.5963  -6.5582  -6.5529
     4.9672   4.9745   4.9837   5.2894   5.4429   5.5021   5.5064   6.2230
     6.2261   6.2370   6.2694   6.6556   6.6681   6.6717   6.6961   6.7061
     6.8313   7.0808   7.0865   7.2722   7.3833   7.7559   7.7643   8.0535
     9.3536   9.5438   9.7606   9.7607   9.7847  10.0601  10.0964  10.0964
    10.2872  10.2884  10.4210  10.4213  10.4422  10.5539  10.5541  10.5599
    10.5700  10.6503  10.6511  10.6516  10.8419  10.8806  10.8814  10.9598
    11.0714  11.2431  11.2744  11.3013  11.3014  11.3600  11.3604  11.4229
    12.6927  12.8385  12.8838  12.8840  13.2804  13.3349  13.3423  13.3426
    16.6930  17.6040  18.6695  19.3592  19.3594

          k = 0.3750 0.3750-0.1250 (  2734 PWs)   bands (ev):

    -7.5018  -7.1715  -6.9667  -6.7739  -6.7674  -6.5966  -6.5584  -6.5531
     4.9715   4.9772   4.9844   5.2491   5.5020   5.5086   5.5114   6.1257
     6.2281   6.2383   6.3490   6.5670   6.5753   6.6639   6.8203   6.8272
     6.8319   7.0424   7.0478   7.1589   7.5068   7.7478   7.7749   8.0020
     9.3812   9.5570   9.9438   9.9439  10.0211  10.0216  10.0429  10.0446
    10.0568  10.1777  10.2141  10.2142  10.3991  10.4436  10.4978  10.4989
    10.6595  10.6975  10.6981  10.7125  10.8963  10.9487  11.0954  11.0959
    11.2158  11.2166  11.2325  11.2694  11.2769  11.2786  11.3479  11.3484
    12.7397  12.7987  12.8810  12.8812  13.2541  13.3415  13.3418  13.3535
    16.6932  17.6024  18.6717  19.3601  19.3603

          k =-0.2500-0.2500 0.0000 (  2742 PWs)   bands (ev):

    -7.6398  -7.0198  -7.0133  -6.7238  -6.7173  -6.6052  -6.5993  -6.5462
     4.7745   4.7792   5.0810   5.0872   5.2442   5.2512   5.7075   5.9707
     6.3141   6.3230   6.5884   6.6781   6.6811   6.7927   6.8599   6.9242
     7.0185   7.1598   7.1694   7.2051   7.2106   7.4894   7.8356   8.1236
     9.5570   9.6087   9.6370   9.6377   9.7745  10.0747  10.0749  10.1313
    10.2429  10.2437  10.3068  10.3858  10.4484  10.5583  10.5602  10.5609
    10.6326  10.6647  10.6656  10.7428  10.7652  10.8212  11.0494  11.0504
    11.1049  11.2705  11.2706  11.3396  11.3696  11.3699  11.3857  11.4071
    13.0442  13.0461  13.0537  13.0538  13.0632  13.2057  13.2059  13.2352
    16.0081  18.0598  18.0617  19.3729  19.3735

     the Fermi energy is    11.9569 ev

!    total energy              =    -941.98718112 Ry
     Harris-Foulkes estimate   =    -941.98718112 Ry
     estimated scf accuracy    <          7.2E-09 Ry

     The total energy is the sum of the following terms:

     one-electron contribution =     -56.32836737 Ry
     hartree contribution      =     175.70920568 Ry
     xc contribution           =    -297.53952697 Ry
     ewald contribution        =    -763.85740583 Ry
     Hubbard energy            =       0.02891338 Ry
     smearing contrib. (-TS)   =       0.00000000 Ry

     total magnetization       =     0.00 Bohr mag/cell
     absolute magnetization    =    12.28 Bohr mag/cell

     convergence has been achieved in   6 iterations

     Writing output data file nio.save
 
     init_run     :     13.64s CPU     16.26s WALL (       1 calls)
     electrons    :    230.38s CPU    242.95s WALL (       1 calls)

     Called by init_run:
     wfcinit      :      0.67s CPU      2.15s WALL (       1 calls)
     potinit      :      1.12s CPU      1.37s WALL (       1 calls)

     Called by electrons:
     c_bands      :     94.84s CPU     99.80s WALL (       6 calls)
     sum_band     :     72.94s CPU     75.01s WALL (       6 calls)
     v_of_rho     :      6.59s CPU      7.52s WALL (       7 calls)
     newd         :     64.03s CPU     69.23s WALL (       7 calls)
     mix_rho      :      0.97s CPU      1.07s WALL (       6 calls)

     Called by c_bands:
     init_us_2    :      0.82s CPU      0.89s WALL (      91 calls)
     cegterg      :     92.02s CPU     96.51s WALL (      42 calls)

     Called by *egterg:
     h_psi        :     64.60s CPU     67.22s WALL (     210 calls)
     s_psi        :      5.75s CPU      5.77s WALL (     217 calls)
     g_psi        :      0.34s CPU      0.33s WALL (     168 calls)
     cdiaghg      :      6.30s CPU      6.28s WALL (     203 calls)

     Called by h_psi:
     add_vuspsi   :      5.46s CPU      5.45s WALL (     210 calls)

     General routines
     calbec       :      9.49s CPU      9.49s WALL (     511 calls)
     fft          :      5.71s CPU      6.45s WALL (     205 calls)
     ffts         :      0.08s CPU      0.09s WALL (      26 calls)
     fftw         :     35.51s CPU     38.97s WALL (   20848 calls)
     interpolate  :      1.02s CPU      1.30s WALL (      26 calls)
     davcio       :      0.00s CPU      2.53s WALL (     266 calls)
 
     Parallel routines
     fft_scatter  :      6.84s CPU      8.12s WALL (   21079 calls)
     EXX routines
 
     PWSCF        :  4m 4.36s CPU     4m19.68s WALL

 
   This run was terminated on:  17:20:51  16Jun2012            

=------------------------------------------------------------------------------=
   JOB DONE.
=------------------------------------------------------------------------------=
