
     Program PWSCF v.5.0        starts on 16Jun2012 at 17:20:54 

     This program is part of the open-source Quantum ESPRESSO suite
     for quantum simulation of materials; please cite
         "P. Giannozzi et al., J. Phys.:Condens. Matter 21 395502 (2009);
          URL http://www.quantum-espresso.org", 
     in publications or presentations arising from this work. More details at
     http://www.quantum-espresso.org/quote.php

     Parallel version (MPI), running on     4 processors
     K-points division:     npool     =    4

     Current dimensions of program PWSCF are:
     Max number of different atomic species (ntypx) = 10
     Max number of k-points (npk) =  40000
     Max angular momentum in pseudopotentials (lmaxx) =  3
     Waiting for input...
     Reading input from standard input
               file Ni.pbe-nd-rrkjus.UPF: wavefunction(s)  4S renormalized
               file Ni.pbe-nd-rrkjus.UPF: wavefunction(s)  4S renormalized
               file O.pbe-rrkjus.UPF: wavefunction(s)  2S renormalized
               file O.pbe-rrkjus.UPF: wavefunction(s)  2S renormalized

     Subspace diagonalization in iterative solution of the eigenvalue problem:
     a serial algorithm will be used

 
     G-vector sticks info
     --------------------
     sticks:   dense  smooth     PW     G-vecs:    dense   smooth      PW
     Sum        2587    1039    301                86547    22075    3479
 


     bravais-lattice index     =            0
     lattice parameter (alat)  =       7.9000  a.u.
     unit-cell volume          =     986.0780 (a.u.)^3
     number of atoms/cell      =           16
     number of atomic types    =            4
     number of electrons       =       128.00
     number of Kohn-Sham states=           77
     kinetic-energy cutoff     =      30.0000  Ry
     charge density cutoff     =     300.0000  Ry
     convergence threshold     =      1.0E-08
     mixing beta               =       0.3000
     number of iterations used =            8  plain     mixing
     Exchange-correlation      =  SLA  PW   PBE  PBE ( 1 4 3 4 0)
     EXX-fraction              =        0.00

     celldm(1)=   7.900000  celldm(2)=   0.000000  celldm(3)=   0.000000
     celldm(4)=   0.000000  celldm(5)=   0.000000  celldm(6)=   0.000000

     crystal axes: (cart. coord. in units of alat)
               a(1) = (   1.000000   1.000000   0.000000 )  
               a(2) = (   1.000000   0.000000   1.000000 )  
               a(3) = (   0.000000   1.000000   1.000000 )  

     reciprocal axes: (cart. coord. in units 2 pi/alat)
               b(1) = (  0.500000  0.500000 -0.500000 )  
               b(2) = (  0.500000 -0.500000  0.500000 )  
               b(3) = ( -0.500000  0.500000  0.500000 )  


     PseudoPot. # 1 for Ni read from file:
     ../pseudo/Ni.pbe-nd-rrkjus.UPF
     MD5 check sum: 8081f0a005c9a5470caab1a58e82ecb2
     Pseudo is Ultrasoft + core correction, Zval = 10.0
     Generated by new atomic code, or converted to UPF format
     Using radial grid of 1203 points,  6 beta functions with: 
                l(1) =   0
                l(2) =   0
                l(3) =   1
                l(4) =   1
                l(5) =   2
                l(6) =   2
     Q(r) pseudized with 0 coefficients 


     PseudoPot. # 2 for Ni read from file:
     ../pseudo/Ni.pbe-nd-rrkjus.UPF
     MD5 check sum: 8081f0a005c9a5470caab1a58e82ecb2
     Pseudo is Ultrasoft + core correction, Zval = 10.0
     Generated by new atomic code, or converted to UPF format
     Using radial grid of 1203 points,  6 beta functions with: 
                l(1) =   0
                l(2) =   0
                l(3) =   1
                l(4) =   1
                l(5) =   2
                l(6) =   2
     Q(r) pseudized with 0 coefficients 


     PseudoPot. # 3 for O  read from file:
     ../pseudo/O.pbe-rrkjus.UPF
     MD5 check sum: 390ba29e75625707450f3bd3f0eb6be9
     Pseudo is Ultrasoft, Zval =  6.0
     Generated by new atomic code, or converted to UPF format
     Using radial grid of 1269 points,  4 beta functions with: 
                l(1) =   0
                l(2) =   0
                l(3) =   1
                l(4) =   1
     Q(r) pseudized with 0 coefficients 


     PseudoPot. # 4 for O  read from file:
     ../pseudo/O.pbe-rrkjus.UPF
     MD5 check sum: 390ba29e75625707450f3bd3f0eb6be9
     Pseudo is Ultrasoft, Zval =  6.0
     Generated by new atomic code, or converted to UPF format
     Using radial grid of 1269 points,  4 beta functions with: 
                l(1) =   0
                l(2) =   0
                l(3) =   1
                l(4) =   1
     Q(r) pseudized with 0 coefficients 


     atomic species   valence    mass     pseudopotential
        Ni1           10.00     1.00000     Ni( 1.00)
        Ni2           10.00     1.00000     Ni( 1.00)
        O1             6.00     1.00000     O ( 1.00)
        O2             6.00     1.00000     O ( 1.00)

     Starting magnetic structure 
     atomic species   magnetization
        Ni1          0.500
        Ni2         -0.500
        O1           0.000
        O2           0.000
 -----
     simplified LDA+U calculation, Hubbard_lmax = 2
     atomic species  L   Hubbard U  Hubbard alpha
        Ni1          2    0.000000    0.000000
        Ni2          2    0.000000    0.000000
        O1           1    0.000000    0.000000
        O2           1    0.000000    0.000000
 -----

      6 Sym. Ops. (no inversion) found



   Cartesian axes

     site n.     atom                  positions (alat units)
         1           Ni1 tau(   1) = (   0.0000000   0.0000000  -0.5000000  )
         2           Ni1 tau(   2) = (   1.0000000   0.5000000   0.0000000  )
         3           Ni1 tau(   3) = (   0.5000000   1.0000000   0.0000000  )
         4           Ni1 tau(   4) = (   0.5000000   0.5000000   0.5000000  )
         5           Ni2 tau(   5) = (   0.5000000   0.5000000  -0.5000000  )
         6           Ni2 tau(   6) = (   0.5000000   0.0000000   0.0000000  )
         7           Ni2 tau(   7) = (   0.0000000   0.5000000   0.0000000  )
         8           Ni2 tau(   8) = (   1.0000000   1.0000000   0.5000000  )
         9           O1  tau(   9) = (   0.0000000   0.0000000   0.0000000  )
        10           O2  tau(  10) = (   0.5000000   0.5000000   0.0000000  )
        11           O2  tau(  11) = (   0.0000000   0.5000000   0.5000000  )
        12           O2  tau(  12) = (   0.5000000   0.0000000   0.5000000  )
        13           O2  tau(  13) = (   1.0000000   0.5000000   0.5000000  )
        14           O2  tau(  14) = (   0.5000000   1.0000000   0.5000000  )
        15           O2  tau(  15) = (   0.5000000   0.5000000   1.0000000  )
        16           O2  tau(  16) = (   1.0000000   1.0000000   1.0000000  )

     number of k points=    26  gaussian smearing, width (Ry)=  0.0100
                       cart. coord. in units 2pi/alat
        k(    1) = (   0.0000000   0.0000000   0.0000000), wk =   0.0156250
        k(    2) = (  -0.1250000   0.1250000   0.1250000), wk =   0.0937500
        k(    3) = (   0.2500000  -0.2500000  -0.2500000), wk =   0.0468750
        k(    4) = (   0.0000000   0.0000000   0.2500000), wk =   0.0937500
        k(    5) = (   0.3750000  -0.3750000  -0.1250000), wk =   0.1875000
        k(    6) = (   0.2500000  -0.2500000   0.0000000), wk =   0.0937500
        k(    7) = (   0.0000000   0.0000000  -0.5000000), wk =   0.0468750
        k(    8) = (   0.0000000   0.2500000  -0.5000000), wk =   0.0937500
        k(    9) = (   0.1250000   0.1250000   0.1250000), wk =   0.0312500
        k(   10) = (  -0.2500000  -0.2500000  -0.2500000), wk =   0.0156250
        k(   11) = (  -0.3750000  -0.3750000  -0.1250000), wk =   0.0937500
        k(   12) = (   0.3750000   0.3750000  -0.1250000), wk =   0.0937500
        k(   13) = (  -0.2500000  -0.2500000   0.0000000), wk =   0.0937500
        k(   14) = (   0.0000000   0.0000000   0.0000000), wk =   0.0156250
        k(   15) = (  -0.1250000   0.1250000   0.1250000), wk =   0.0937500
        k(   16) = (   0.2500000  -0.2500000  -0.2500000), wk =   0.0468750
        k(   17) = (   0.0000000   0.0000000   0.2500000), wk =   0.0937500
        k(   18) = (   0.3750000  -0.3750000  -0.1250000), wk =   0.1875000
        k(   19) = (   0.2500000  -0.2500000   0.0000000), wk =   0.0937500
        k(   20) = (   0.0000000   0.0000000  -0.5000000), wk =   0.0468750
        k(   21) = (   0.0000000   0.2500000  -0.5000000), wk =   0.0937500
        k(   22) = (   0.1250000   0.1250000   0.1250000), wk =   0.0312500
        k(   23) = (  -0.2500000  -0.2500000  -0.2500000), wk =   0.0156250
        k(   24) = (  -0.3750000  -0.3750000  -0.1250000), wk =   0.0937500
        k(   25) = (   0.3750000   0.3750000  -0.1250000), wk =   0.0937500
        k(   26) = (  -0.2500000  -0.2500000   0.0000000), wk =   0.0937500

     Dense  grid:    86547 G-vectors     FFT dimensions: (  64,  64,  64)

     Smooth grid:    22075 G-vectors     FFT dimensions: (  40,  40,  40)

     Largest allocated arrays     est. size (Mb)     dimensions
        Kohn-Sham Wavefunctions         3.25 Mb     (   2764,   77)
        Atomic wavefunctions            3.37 Mb     (   2764,   80)
        NL pseudopotentials             8.77 Mb     (   2764,  208)
        Each V/rho on FFT grid          8.00 Mb     ( 262144,   2)
        Each G-vector array             0.66 Mb     (  86547)
        G-vector shells                 0.00 Mb     (    635)
     Largest temporary arrays     est. size (Mb)     dimensions
        Auxiliary wavefunctions        12.99 Mb     (   2764,  308)
        Each subspace H/S matrix        1.45 Mb     ( 308, 308)
        Each <psi_i|beta_j> matrix      0.24 Mb     (    208,   77)
        Arrays for rho mixing          32.00 Mb     ( 262144,   8)

     Check: negative/imaginary core charge=   -0.000047    0.000000

     The initial density is read from file :
     ./temp/nio.save/charge-density.dat

     Number of +U iterations with fixed ns =  0
     Starting occupations:
 --- enter write_ns ---
 LDA+U parameters:
U( 1)     =  0.00000000
alpha( 1) =  0.00000000
U( 2)     =  0.00000000
alpha( 2) =  0.00000000
U( 3)     =  0.00000000
alpha( 3) =  0.00000000
U( 4)     =  0.00000000
alpha( 4) =  0.00000000
atom    1   Tr[ns(na)] (up, down, total) =   4.95241  3.75361  8.70602
   spin  1
    eigenvalues: 
  0.980  0.980  0.997  0.997  0.997
    eigenvectors:
  0.000  1.000  0.000  0.000  0.000
  0.000  0.000  0.167  0.500  0.333
  0.000  0.000  0.167  0.500  0.333
  1.000  0.000  0.000  0.000  0.000
  0.000  0.000  0.667  0.000  0.333
    occupations:
  0.980  0.000  0.000  0.000  0.000
  0.000  0.997  0.000  0.000  0.000
  0.000  0.000  0.997  0.000  0.000
  0.000  0.000  0.000  0.980  0.000
  0.000  0.000  0.000  0.000  0.997
   spin  2
    eigenvalues: 
  0.384  0.384  0.995  0.995  0.995
    eigenvectors:
  1.000  0.000  0.000  0.000  0.000
  0.000  0.000  0.167  0.500  0.333
  0.000  0.000  0.167  0.500  0.333
  0.000  1.000  0.000  0.000  0.000
  0.000  0.000  0.667  0.000  0.333
    occupations:
  0.384  0.001  0.001  0.000  0.001
  0.001  0.995  0.000  0.001  0.000
  0.001  0.000  0.995 -0.001  0.000
  0.000  0.001 -0.001  0.384  0.000
  0.001  0.000  0.000  0.000  0.995
atomic mag. moment =     1.198793
atom    2   Tr[ns(na)] (up, down, total) =   4.95241  3.75361  8.70602
   spin  1
    eigenvalues: 
  0.980  0.980  0.997  0.997  0.997
    eigenvectors:
  0.750  0.250  0.000  0.000  0.000
  0.000  0.000  0.667  0.000  0.333
  0.000  0.000  0.167  0.500  0.333
  0.250  0.750  0.000  0.000  0.000
  0.000  0.000  0.167  0.500  0.333
    occupations:
  0.980  0.000  0.000  0.000  0.000
  0.000  0.997  0.000  0.000  0.000
  0.000  0.000  0.997  0.000  0.000
  0.000  0.000  0.000  0.980  0.000
  0.000  0.000  0.000  0.000  0.997
   spin  2
    eigenvalues: 
  0.384  0.384  0.995  0.995  0.995
    eigenvectors:
  0.250  0.750  0.000  0.000  0.000
  0.000  0.000  0.667  0.000  0.333
  0.000  0.000  0.167  0.500  0.333
  0.750  0.250  0.000  0.000  0.000
  0.000  0.000  0.167  0.500  0.333
    occupations:
  0.384  0.001  0.001  0.000  0.001
  0.001  0.995  0.000  0.001  0.000
  0.001  0.000  0.995 -0.001  0.000
  0.000  0.001 -0.001  0.384  0.000
  0.001  0.000  0.000  0.000  0.995
atomic mag. moment =     1.198793
atom    3   Tr[ns(na)] (up, down, total) =   4.95241  3.75361  8.70602
   spin  1
    eigenvalues: 
  0.980  0.980  0.997  0.997  0.997
    eigenvectors:
  0.750  0.250  0.000  0.000  0.000
  0.000  0.000  0.167  0.500  0.333
  0.000  0.000  0.667  0.000  0.333
  0.250  0.750  0.000  0.000  0.000
  0.000  0.000  0.167  0.500  0.333
    occupations:
  0.980  0.000  0.000  0.000  0.000
  0.000  0.997  0.000  0.000  0.000
  0.000  0.000  0.997  0.000  0.000
  0.000  0.000  0.000  0.980  0.000
  0.000  0.000  0.000  0.000  0.997
   spin  2
    eigenvalues: 
  0.384  0.384  0.995  0.995  0.995
    eigenvectors:
  0.250  0.750  0.000  0.000  0.000
  0.000  0.000  0.167  0.500  0.333
  0.000  0.000  0.667  0.000  0.333
  0.750  0.250  0.000  0.000  0.000
  0.000  0.000  0.167  0.500  0.333
    occupations:
  0.384  0.001  0.001  0.000  0.001
  0.001  0.995  0.000  0.001  0.000
  0.001  0.000  0.995 -0.001  0.000
  0.000  0.001 -0.001  0.384  0.000
  0.001  0.000  0.000  0.000  0.995
atomic mag. moment =     1.198793
atom    4   Tr[ns(na)] (up, down, total) =   4.95241  3.75362  8.70603
   spin  1
    eigenvalues: 
  0.980  0.980  0.997  0.997  0.997
    eigenvectors:
  0.294  0.706  0.000  0.000  0.000
  0.000  0.000  0.038  0.629  0.333
  0.000  0.000  0.347  0.319  0.333
  0.706  0.294  0.000  0.000  0.000
  0.000  0.000  0.615  0.052  0.333
    occupations:
  0.980  0.000  0.000  0.000  0.000
  0.000  0.997  0.000  0.000  0.000
  0.000  0.000  0.997  0.000  0.000
  0.000  0.000  0.000  0.980  0.000
  0.000  0.000  0.000  0.000  0.997
   spin  2
    eigenvalues: 
  0.384  0.384  0.995  0.995  0.995
    eigenvectors:
  0.565  0.435  0.000  0.000  0.000
  0.000  0.000  0.116  0.551  0.333
  0.000  0.000  0.224  0.443  0.333
  0.435  0.565  0.000  0.000  0.000
  0.000  0.000  0.661  0.006  0.333
    occupations:
  0.384  0.001  0.001  0.000  0.001
  0.001  0.995  0.000  0.001  0.000
  0.001  0.000  0.995 -0.001  0.000
  0.000  0.001 -0.001  0.384  0.000
  0.001  0.000  0.000  0.000  0.995
atomic mag. moment =     1.198788
atom    5   Tr[ns(na)] (up, down, total) =   3.75362  4.95241  8.70602
   spin  1
    eigenvalues: 
  0.384  0.384  0.995  0.995  0.995
    eigenvectors:
  0.295  0.705  0.000  0.000  0.000
  0.000  0.000  0.133  0.533  0.333
  0.000  0.000  0.202  0.464  0.333
  0.705  0.295  0.000  0.000  0.000
  0.000  0.000  0.664  0.002  0.333
    occupations:
  0.384  0.001  0.001  0.000  0.001
  0.001  0.995  0.000  0.001  0.000
  0.001  0.000  0.995 -0.001  0.000
  0.000  0.001 -0.001  0.384  0.000
  0.001  0.000  0.000  0.000  0.995
   spin  2
    eigenvalues: 
  0.980  0.980  0.997  0.997  0.997
    eigenvectors:
  0.491  0.509  0.000  0.000  0.000
  0.000  0.000  0.012  0.655  0.333
  0.000  0.000  0.417  0.250  0.333
  0.509  0.491  0.000  0.000  0.000
  0.000  0.000  0.571  0.096  0.333
    occupations:
  0.980  0.000  0.000  0.000  0.000
  0.000  0.997  0.000  0.000  0.000
  0.000  0.000  0.997  0.000  0.000
  0.000  0.000  0.000  0.980  0.000
  0.000  0.000  0.000  0.000  0.997
atomic mag. moment =    -1.198791
atom    6   Tr[ns(na)] (up, down, total) =   3.75362  4.95241  8.70602
   spin  1
    eigenvalues: 
  0.384  0.384  0.995  0.995  0.995
    eigenvectors:
  0.250  0.750  0.000  0.000  0.000
  0.000  0.000  0.167  0.500  0.333
  0.000  0.000  0.667  0.000  0.333
  0.750  0.250  0.000  0.000  0.000
  0.000  0.000  0.167  0.500  0.333
    occupations:
  0.384  0.001  0.001  0.000  0.001
  0.001  0.995  0.000  0.001  0.000
  0.001  0.000  0.995 -0.001  0.000
  0.000  0.001 -0.001  0.384  0.000
  0.001  0.000  0.000  0.000  0.995
   spin  2
    eigenvalues: 
  0.980  0.980  0.997  0.997  0.997
    eigenvectors:
  0.750  0.250  0.000  0.000  0.000
  0.000  0.000  0.167  0.500  0.333
  0.000  0.000  0.667  0.000  0.333
  0.250  0.750  0.000  0.000  0.000
  0.000  0.000  0.167  0.500  0.333
    occupations:
  0.980  0.000  0.000  0.000  0.000
  0.000  0.997  0.000  0.000  0.000
  0.000  0.000  0.997  0.000  0.000
  0.000  0.000  0.000  0.980  0.000
  0.000  0.000  0.000  0.000  0.997
atomic mag. moment =    -1.198792
atom    7   Tr[ns(na)] (up, down, total) =   3.75362  4.95241  8.70602
   spin  1
    eigenvalues: 
  0.384  0.384  0.995  0.995  0.995
    eigenvectors:
  0.250  0.750  0.000  0.000  0.000
  0.000  0.000  0.667  0.000  0.333
  0.000  0.000  0.167  0.500  0.333
  0.750  0.250  0.000  0.000  0.000
  0.000  0.000  0.167  0.500  0.333
    occupations:
  0.384  0.001  0.001  0.000  0.001
  0.001  0.995  0.000  0.001  0.000
  0.001  0.000  0.995 -0.001  0.000
  0.000  0.001 -0.001  0.384  0.000
  0.001  0.000  0.000  0.000  0.995
   spin  2
    eigenvalues: 
  0.980  0.980  0.997  0.997  0.997
    eigenvectors:
  0.750  0.250  0.000  0.000  0.000
  0.000  0.000  0.667  0.000  0.333
  0.000  0.000  0.167  0.500  0.333
  0.250  0.750  0.000  0.000  0.000
  0.000  0.000  0.167  0.500  0.333
    occupations:
  0.980  0.000  0.000  0.000  0.000
  0.000  0.997  0.000  0.000  0.000
  0.000  0.000  0.997  0.000  0.000
  0.000  0.000  0.000  0.980  0.000
  0.000  0.000  0.000  0.000  0.997
atomic mag. moment =    -1.198792
atom    8   Tr[ns(na)] (up, down, total) =   3.75362  4.95241  8.70602
   spin  1
    eigenvalues: 
  0.384  0.384  0.995  0.995  0.995
    eigenvectors:
  1.000  0.000  0.000  0.000  0.000
  0.000  0.000  0.167  0.500  0.333
  0.000  0.000  0.167  0.500  0.333
  0.000  1.000  0.000  0.000  0.000
  0.000  0.000  0.667  0.000  0.333
    occupations:
  0.384  0.001  0.001  0.000  0.001
  0.001  0.995  0.000  0.001  0.000
  0.001  0.000  0.995 -0.001  0.000
  0.000  0.001 -0.001  0.384  0.000
  0.001  0.000  0.000  0.000  0.995
   spin  2
    eigenvalues: 
  0.980  0.980  0.997  0.997  0.997
    eigenvectors:
  0.000  1.000  0.000  0.000  0.000
  0.000  0.000  0.167  0.500  0.333
  0.000  0.000  0.167  0.500  0.333
  1.000  0.000  0.000  0.000  0.000
  0.000  0.000  0.667  0.000  0.333
    occupations:
  0.980  0.000  0.000  0.000  0.000
  0.000  0.997  0.000  0.000  0.000
  0.000  0.000  0.997  0.000  0.000
  0.000  0.000  0.000  0.980  0.000
  0.000  0.000  0.000  0.000  0.997
atomic mag. moment =    -1.198792
atom    9   Tr[ns(na)] (up, down, total) =   2.81114  2.81114  5.62228
   spin  1
    eigenvalues: 
  0.937  0.937  0.938
    eigenvectors:
  0.329  0.338  0.333
  0.624  0.043  0.333
  0.047  0.620  0.333
    occupations:
  0.937  0.000  0.000
  0.000  0.937  0.000
  0.000  0.000  0.937
   spin  2
    eigenvalues: 
  0.937  0.937  0.938
    eigenvectors:
  0.444  0.223  0.333
  0.551  0.116  0.333
  0.006  0.661  0.333
    occupations:
  0.937  0.000  0.000
  0.000  0.937  0.000
  0.000  0.000  0.937
atomic mag. moment =    -0.000001
atom   10   Tr[ns(na)] (up, down, total) =   2.81114  2.81114  5.62228
   spin  1
    eigenvalues: 
  0.937  0.937  0.938
    eigenvectors:
  0.667  0.000  0.333
  0.167  0.500  0.333
  0.167  0.500  0.333
    occupations:
  0.937  0.000  0.000
  0.000  0.937  0.000
  0.000  0.000  0.937
   spin  2
    eigenvalues: 
  0.937  0.937  0.938
    eigenvectors:
  0.667  0.000  0.333
  0.167  0.500  0.333
  0.167  0.500  0.333
    occupations:
  0.937  0.000  0.000
  0.000  0.937  0.000
  0.000  0.000  0.937
atomic mag. moment =     0.000000
atom   11   Tr[ns(na)] (up, down, total) =   2.81114  2.81114  5.62228
   spin  1
    eigenvalues: 
  0.937  0.937  0.938
    eigenvectors:
  0.167  0.500  0.333
  0.667  0.000  0.333
  0.167  0.500  0.333
    occupations:
  0.937  0.000  0.000
  0.000  0.937  0.000
  0.000  0.000  0.937
   spin  2
    eigenvalues: 
  0.937  0.937  0.938
    eigenvectors:
  0.167  0.500  0.333
  0.667  0.000  0.333
  0.167  0.500  0.333
    occupations:
  0.937  0.000  0.000
  0.000  0.937  0.000
  0.000  0.000  0.937
atomic mag. moment =     0.000000
atom   12   Tr[ns(na)] (up, down, total) =   2.81114  2.81114  5.62228
   spin  1
    eigenvalues: 
  0.937  0.937  0.938
    eigenvectors:
  0.167  0.500  0.333
  0.167  0.500  0.333
  0.667  0.000  0.333
    occupations:
  0.937  0.000  0.000
  0.000  0.937  0.000
  0.000  0.000  0.937
   spin  2
    eigenvalues: 
  0.937  0.937  0.938
    eigenvectors:
  0.167  0.500  0.333
  0.167  0.500  0.333
  0.667  0.000  0.333
    occupations:
  0.937  0.000  0.000
  0.000  0.937  0.000
  0.000  0.000  0.937
atomic mag. moment =     0.000000
atom   13   Tr[ns(na)] (up, down, total) =   2.81114  2.81114  5.62228
   spin  1
    eigenvalues: 
  0.937  0.937  0.938
    eigenvectors:
  0.167  0.500  0.333
  0.667  0.000  0.333
  0.167  0.500  0.333
    occupations:
  0.937  0.000  0.000
  0.000  0.937  0.000
  0.000  0.000  0.937
   spin  2
    eigenvalues: 
  0.937  0.937  0.938
    eigenvectors:
  0.167  0.500  0.333
  0.667  0.000  0.333
  0.167  0.500  0.333
    occupations:
  0.937  0.000  0.000
  0.000  0.937  0.000
  0.000  0.000  0.937
atomic mag. moment =     0.000000
atom   14   Tr[ns(na)] (up, down, total) =   2.81114  2.81114  5.62228
   spin  1
    eigenvalues: 
  0.937  0.937  0.938
    eigenvectors:
  0.167  0.500  0.333
  0.167  0.500  0.333
  0.667  0.000  0.333
    occupations:
  0.937  0.000  0.000
  0.000  0.937  0.000
  0.000  0.000  0.937
   spin  2
    eigenvalues: 
  0.937  0.937  0.938
    eigenvectors:
  0.167  0.500  0.333
  0.167  0.500  0.333
  0.667  0.000  0.333
    occupations:
  0.937  0.000  0.000
  0.000  0.937  0.000
  0.000  0.000  0.937
atomic mag. moment =     0.000000
atom   15   Tr[ns(na)] (up, down, total) =   2.81114  2.81114  5.62228
   spin  1
    eigenvalues: 
  0.937  0.937  0.938
    eigenvectors:
  0.667  0.000  0.333
  0.167  0.500  0.333
  0.167  0.500  0.333
    occupations:
  0.937  0.000  0.000
  0.000  0.937  0.000
  0.000  0.000  0.937
   spin  2
    eigenvalues: 
  0.937  0.937  0.938
    eigenvectors:
  0.667  0.000  0.333
  0.167  0.500  0.333
  0.167  0.500  0.333
    occupations:
  0.937  0.000  0.000
  0.000  0.937  0.000
  0.000  0.000  0.937
atomic mag. moment =     0.000000
atom   16   Tr[ns(na)] (up, down, total) =   2.81114  2.81114  5.62229
   spin  1
    eigenvalues: 
  0.937  0.937  0.938
    eigenvectors:
  0.459  0.207  0.333
  0.538  0.129  0.333
  0.003  0.664  0.333
    occupations:
  0.937  0.000  0.000
  0.000  0.937  0.000
  0.000  0.000  0.937
   spin  2
    eigenvalues: 
  0.937  0.937  0.938
    eigenvectors:
  0.422  0.245  0.333
  0.567  0.099  0.333
  0.011  0.656  0.333
    occupations:
  0.937  0.000  0.000
  0.000  0.937  0.000
  0.000  0.000  0.937
atomic mag. moment =     0.000000
N of occupied +U levels = 114.6264629
 --- exit write_ns ---
 Atomic wfc used for LDA+U Projector are NOT orthogonalized
     Starting wfc from file

     total cpu time spent up to now is       15.5 secs

     per-process dynamical memory:    86.3 Mb

     Self-consistent Calculation

     iteration #  1     ecut=    30.00 Ry     beta=0.30
     Davidson diagonalization with overlap
     ethr =  2.18E-11,  avg # of iterations =  9.8
 --- enter write_ns ---
 LDA+U parameters:
U( 1)     =  0.00000000
alpha( 1) =  0.00000000
U( 2)     =  0.00000000
alpha( 2) =  0.00000000
U( 3)     =  0.00000000
alpha( 3) =  0.00000000
U( 4)     =  0.00000000
alpha( 4) =  0.00000000
atom    1   Tr[ns(na)] (up, down, total) =   4.95241  3.75362  8.70603
   spin  1
    eigenvalues: 
  0.980  0.980  0.997  0.997  0.997
    eigenvectors:
  1.000  0.000  0.000  0.000  0.000
  0.000  0.000  0.167  0.500  0.333
  0.000  0.000  0.167  0.500  0.333
  0.000  1.000  0.000  0.000  0.000
  0.000  0.000  0.667  0.000  0.333
    occupations:
  0.980  0.000  0.000  0.000  0.000
  0.000  0.997  0.000  0.000  0.000
  0.000  0.000  0.997  0.000  0.000
  0.000  0.000  0.000  0.980  0.000
  0.000  0.000  0.000  0.000  0.997
   spin  2
    eigenvalues: 
  0.384  0.384  0.995  0.995  0.995
    eigenvectors:
  0.000  1.000  0.000  0.000  0.000
  0.000  0.000  0.500  0.167  0.333
  0.000  0.000  0.500  0.167  0.333
  1.000  0.000  0.000  0.000  0.000
  0.000  0.000  0.000  0.666  0.334
    occupations:
  0.384  0.001  0.001  0.000  0.001
  0.001  0.995  0.000  0.001  0.000
  0.001  0.000  0.995 -0.001  0.000
  0.000  0.001 -0.001  0.384  0.000
  0.001  0.000  0.000  0.000  0.995
atomic mag. moment =     1.198792
atom    2   Tr[ns(na)] (up, down, total) =   4.95241  3.75362  8.70603
   spin  1
    eigenvalues: 
  0.980  0.980  0.997  0.997  0.997
    eigenvectors:
  0.250  0.750  0.000  0.000  0.000
  0.000  0.000  0.667  0.000  0.333
  0.000  0.000  0.167  0.500  0.333
  0.750  0.250  0.000  0.000  0.000
  0.000  0.000  0.167  0.500  0.333
    occupations:
  0.980  0.000  0.000  0.000  0.000
  0.000  0.997  0.000  0.000  0.000
  0.000  0.000  0.997  0.000  0.000
  0.000  0.000  0.000  0.980  0.000
  0.000  0.000  0.000  0.000  0.997
   spin  2
    eigenvalues: 
  0.384  0.384  0.995  0.995  0.995
    eigenvectors:
  0.750  0.250  0.000  0.000  0.000
  0.000  0.000  0.000  0.666  0.334
  0.000  0.000  0.500  0.167  0.333
  0.250  0.750  0.000  0.000  0.000
  0.000  0.000  0.500  0.167  0.333
    occupations:
  0.384  0.001  0.001  0.000  0.001
  0.001  0.995  0.000  0.001  0.000
  0.001  0.000  0.995 -0.001  0.000
  0.000  0.001 -0.001  0.384  0.000
  0.001  0.000  0.000  0.000  0.995
atomic mag. moment =     1.198792
atom    3   Tr[ns(na)] (up, down, total) =   4.95241  3.75362  8.70603
   spin  1
    eigenvalues: 
  0.980  0.980  0.997  0.997  0.997
    eigenvectors:
  0.250  0.750  0.000  0.000  0.000
  0.000  0.000  0.167  0.500  0.333
  0.000  0.000  0.667  0.000  0.333
  0.750  0.250  0.000  0.000  0.000
  0.000  0.000  0.167  0.500  0.333
    occupations:
  0.980  0.000  0.000  0.000  0.000
  0.000  0.997  0.000  0.000  0.000
  0.000  0.000  0.997  0.000  0.000
  0.000  0.000  0.000  0.980  0.000
  0.000  0.000  0.000  0.000  0.997
   spin  2
    eigenvalues: 
  0.384  0.384  0.995  0.995  0.995
    eigenvectors:
  0.750  0.250  0.000  0.000  0.000
  0.000  0.000  0.500  0.167  0.333
  0.000  0.000  0.000  0.666  0.334
  0.250  0.750  0.000  0.000  0.000
  0.000  0.000  0.500  0.167  0.333
    occupations:
  0.384  0.001  0.001  0.000  0.001
  0.001  0.995  0.000  0.001  0.000
  0.001  0.000  0.995 -0.001  0.000
  0.000  0.001 -0.001  0.384  0.000
  0.001  0.000  0.000  0.000  0.995
atomic mag. moment =     1.198792
atom    4   Tr[ns(na)] (up, down, total) =   4.95241  3.75359  8.70600
   spin  1
    eigenvalues: 
  0.980  0.980  0.997  0.997  0.997
    eigenvectors:
  0.077  0.923  0.000  0.000  0.000
  0.000  0.000  0.101  0.565  0.333
  0.000  0.000  0.242  0.424  0.333
  0.923  0.077  0.000  0.000  0.000
  0.000  0.000  0.657  0.010  0.333
    occupations:
  0.980  0.000  0.000  0.000  0.000
  0.000  0.997  0.000  0.000  0.000
  0.000  0.000  0.997  0.000  0.000
  0.000  0.000  0.000  0.980  0.000
  0.000  0.000  0.000  0.000  0.997
   spin  2
    eigenvalues: 
  0.384  0.384  0.995  0.995  0.995
    eigenvectors:
  0.336  0.664  0.000  0.000  0.000
  0.000  0.000  0.231  0.436  0.333
  0.000  0.000  0.110  0.557  0.333
  0.664  0.336  0.000  0.000  0.000
  0.000  0.000  0.659  0.007  0.333
    occupations:
  0.384  0.001  0.001  0.000  0.001
  0.001  0.995  0.000  0.001  0.000
  0.001  0.000  0.995 -0.001  0.000
  0.000  0.001 -0.001  0.384  0.000
  0.001  0.000  0.000  0.000  0.995
atomic mag. moment =     1.198814
atom    5   Tr[ns(na)] (up, down, total) =   3.75362  4.95241  8.70603
   spin  1
    eigenvalues: 
  0.384  0.384  0.995  0.995  0.995
    eigenvectors:
  0.716  0.284  0.000  0.000  0.000
  0.000  0.000  0.129  0.538  0.333
  0.000  0.000  0.208  0.459  0.333
  0.284  0.716  0.000  0.000  0.000
  0.000  0.000  0.664  0.003  0.333
    occupations:
  0.384  0.001  0.001  0.000  0.001
  0.001  0.995  0.000  0.001  0.000
  0.001  0.000  0.995 -0.001  0.000
  0.000  0.001 -0.001  0.384  0.000
  0.001  0.000  0.000  0.000  0.995
   spin  2
    eigenvalues: 
  0.980  0.980  0.997  0.997  0.997
    eigenvectors:
  0.268  0.732  0.000  0.000  0.000
  0.000  0.000  0.155  0.511  0.333
  0.000  0.000  0.178  0.489  0.333
  0.732  0.268  0.000  0.000  0.000
  0.000  0.000  0.666  0.000  0.333
    occupations:
  0.980  0.000  0.000  0.000  0.000
  0.000  0.997  0.000  0.000  0.000
  0.000  0.000  0.997  0.000  0.000
  0.000  0.000  0.000  0.980  0.000
  0.000  0.000  0.000  0.000  0.997
atomic mag. moment =    -1.198794
atom    6   Tr[ns(na)] (up, down, total) =   3.75361  4.95241  8.70602
   spin  1
    eigenvalues: 
  0.384  0.384  0.995  0.995  0.995
    eigenvectors:
  0.750  0.250  0.000  0.000  0.000
  0.000  0.000  0.167  0.500  0.333
  0.000  0.000  0.667  0.000  0.333
  0.250  0.750  0.000  0.000  0.000
  0.000  0.000  0.167  0.500  0.333
    occupations:
  0.384  0.001  0.001  0.000  0.001
  0.001  0.995  0.000  0.001  0.000
  0.001  0.000  0.995 -0.001  0.000
  0.000  0.001 -0.001  0.384  0.000
  0.001  0.000  0.000  0.000  0.995
   spin  2
    eigenvalues: 
  0.980  0.980  0.997  0.997  0.997
    eigenvectors:
  0.250  0.750  0.000  0.000  0.000
  0.000  0.000  0.500  0.167  0.333
  0.000  0.000  0.000  0.665  0.335
  0.750  0.250  0.000  0.000  0.000
  0.000  0.000  0.500  0.167  0.333
    occupations:
  0.980  0.000  0.000  0.000  0.000
  0.000  0.997  0.000  0.000  0.000
  0.000  0.000  0.997  0.000  0.000
  0.000  0.000  0.000  0.980  0.000
  0.000  0.000  0.000  0.000  0.997
atomic mag. moment =    -1.198801
atom    7   Tr[ns(na)] (up, down, total) =   3.75361  4.95241  8.70602
   spin  1
    eigenvalues: 
  0.384  0.384  0.995  0.995  0.995
    eigenvectors:
  0.750  0.250  0.000  0.000  0.000
  0.000  0.000  0.667  0.000  0.333
  0.000  0.000  0.167  0.500  0.333
  0.250  0.750  0.000  0.000  0.000
  0.000  0.000  0.167  0.500  0.333
    occupations:
  0.384  0.001  0.001  0.000  0.001
  0.001  0.995  0.000  0.001  0.000
  0.001  0.000  0.995 -0.001  0.000
  0.000  0.001 -0.001  0.384  0.000
  0.001  0.000  0.000  0.000  0.995
   spin  2
    eigenvalues: 
  0.980  0.980  0.997  0.997  0.997
    eigenvectors:
  0.250  0.750  0.000  0.000  0.000
  0.000  0.000  0.000  0.665  0.335
  0.000  0.000  0.500  0.167  0.333
  0.750  0.250  0.000  0.000  0.000
  0.000  0.000  0.500  0.167  0.333
    occupations:
  0.980  0.000  0.000  0.000  0.000
  0.000  0.997  0.000  0.000  0.000
  0.000  0.000  0.997  0.000  0.000
  0.000  0.000  0.000  0.980  0.000
  0.000  0.000  0.000  0.000  0.997
atomic mag. moment =    -1.198801
atom    8   Tr[ns(na)] (up, down, total) =   3.75361  4.95241  8.70602
   spin  1
    eigenvalues: 
  0.384  0.384  0.995  0.995  0.995
    eigenvectors:
  0.000  1.000  0.000  0.000  0.000
  0.000  0.000  0.167  0.500  0.333
  0.000  0.000  0.167  0.500  0.333
  1.000  0.000  0.000  0.000  0.000
  0.000  0.000  0.667  0.000  0.333
    occupations:
  0.384  0.001  0.001  0.000  0.001
  0.001  0.995  0.000  0.001  0.000
  0.001  0.000  0.995 -0.001  0.000
  0.000  0.001 -0.001  0.384  0.000
  0.001  0.000  0.000  0.000  0.995
   spin  2
    eigenvalues: 
  0.980  0.980  0.997  0.997  0.997
    eigenvectors:
  1.000  0.000  0.000  0.000  0.000
  0.000  0.000  0.500  0.167  0.333
  0.000  0.000  0.500  0.167  0.333
  0.000  1.000  0.000  0.000  0.000
  0.000  0.000  0.000  0.665  0.335
    occupations:
  0.980  0.000  0.000  0.000  0.000
  0.000  0.997  0.000  0.000  0.000
  0.000  0.000  0.997  0.000  0.000
  0.000  0.000  0.000  0.980  0.000
  0.000  0.000  0.000  0.000  0.997
atomic mag. moment =    -1.198801
atom    9   Tr[ns(na)] (up, down, total) =   2.81115  2.81114  5.62229
   spin  1
    eigenvalues: 
  0.937  0.937  0.938
    eigenvectors:
  0.420  0.246  0.333
  0.569  0.098  0.333
  0.011  0.655  0.333
    occupations:
  0.937  0.000  0.000
  0.000  0.937  0.000
  0.000  0.000  0.937
   spin  2
    eigenvalues: 
  0.937  0.937  0.938
    eigenvectors:
  0.440  0.226  0.333
  0.553  0.114  0.333
  0.006  0.660  0.333
    occupations:
  0.937  0.000  0.000
  0.000  0.937  0.000
  0.000  0.000  0.937
atomic mag. moment =     0.000002
atom   10   Tr[ns(na)] (up, down, total) =   2.81114  2.81114  5.62229
   spin  1
    eigenvalues: 
  0.937  0.937  0.938
    eigenvectors:
  0.667  0.000  0.333
  0.167  0.500  0.333
  0.167  0.500  0.333
    occupations:
  0.937  0.000  0.000
  0.000  0.937  0.000
  0.000  0.000  0.937
   spin  2
    eigenvalues: 
  0.937  0.937  0.938
    eigenvectors:
  0.000  0.666  0.334
  0.500  0.167  0.333
  0.500  0.167  0.333
    occupations:
  0.937  0.000  0.000
  0.000  0.937  0.000
  0.000  0.000  0.937
atomic mag. moment =     0.000000
atom   11   Tr[ns(na)] (up, down, total) =   2.81114  2.81114  5.62229
   spin  1
    eigenvalues: 
  0.937  0.937  0.938
    eigenvectors:
  0.167  0.500  0.333
  0.667  0.000  0.333
  0.167  0.500  0.333
    occupations:
  0.937  0.000  0.000
  0.000  0.937  0.000
  0.000  0.000  0.937
   spin  2
    eigenvalues: 
  0.937  0.937  0.938
    eigenvectors:
  0.500  0.167  0.333
  0.000  0.666  0.334
  0.500  0.167  0.333
    occupations:
  0.937  0.000  0.000
  0.000  0.937  0.000
  0.000  0.000  0.937
atomic mag. moment =     0.000000
atom   12   Tr[ns(na)] (up, down, total) =   2.81114  2.81114  5.62229
   spin  1
    eigenvalues: 
  0.937  0.937  0.938
    eigenvectors:
  0.167  0.500  0.333
  0.167  0.500  0.333
  0.667  0.000  0.333
    occupations:
  0.937  0.000  0.000
  0.000  0.937  0.000
  0.000  0.000  0.937
   spin  2
    eigenvalues: 
  0.937  0.937  0.938
    eigenvectors:
  0.500  0.167  0.333
  0.500  0.167  0.333
  0.000  0.666  0.334
    occupations:
  0.937  0.000  0.000
  0.000  0.937  0.000
  0.000  0.000  0.937
atomic mag. moment =     0.000000
atom   13   Tr[ns(na)] (up, down, total) =   2.81115  2.81115  5.62229
   spin  1
    eigenvalues: 
  0.937  0.937  0.938
    eigenvectors:
  0.167  0.500  0.333
  0.667  0.000  0.333
  0.167  0.500  0.333
    occupations:
  0.937  0.000  0.000
  0.000  0.937  0.000
  0.000  0.000  0.937
   spin  2
    eigenvalues: 
  0.937  0.937  0.938
    eigenvectors:
  0.500  0.167  0.333
  0.000  0.666  0.334
  0.500  0.167  0.333
    occupations:
  0.937  0.000  0.000
  0.000  0.937  0.000
  0.000  0.000  0.937
atomic mag. moment =     0.000000
atom   14   Tr[ns(na)] (up, down, total) =   2.81115  2.81115  5.62229
   spin  1
    eigenvalues: 
  0.937  0.937  0.938
    eigenvectors:
  0.167  0.500  0.333
  0.167  0.500  0.333
  0.667  0.000  0.333
    occupations:
  0.937  0.000  0.000
  0.000  0.937  0.000
  0.000  0.000  0.937
   spin  2
    eigenvalues: 
  0.937  0.937  0.938
    eigenvectors:
  0.500  0.167  0.333
  0.500  0.167  0.333
  0.000  0.666  0.334
    occupations:
  0.937  0.000  0.000
  0.000  0.937  0.000
  0.000  0.000  0.937
atomic mag. moment =     0.000000
atom   15   Tr[ns(na)] (up, down, total) =   2.81115  2.81115  5.62229
   spin  1
    eigenvalues: 
  0.937  0.937  0.938
    eigenvectors:
  0.667  0.000  0.333
  0.167  0.500  0.333
  0.167  0.500  0.333
    occupations:
  0.937  0.000  0.000
  0.000  0.937  0.000
  0.000  0.000  0.937
   spin  2
    eigenvalues: 
  0.937  0.937  0.938
    eigenvectors:
  0.000  0.666  0.334
  0.500  0.167  0.333
  0.500  0.167  0.333
    occupations:
  0.937  0.000  0.000
  0.000  0.937  0.000
  0.000  0.000  0.937
atomic mag. moment =     0.000000
atom   16   Tr[ns(na)] (up, down, total) =   2.81114  2.81114  5.62228
   spin  1
    eigenvalues: 
  0.937  0.937  0.938
    eigenvectors:
  0.386  0.281  0.333
  0.592  0.075  0.333
  0.022  0.645  0.333
    occupations:
  0.937  0.000  0.000
  0.000  0.937  0.000
  0.000  0.000  0.937
   spin  2
    eigenvalues: 
  0.937  0.937  0.938
    eigenvectors:
  0.398  0.269  0.333
  0.584  0.082  0.333
  0.018  0.649  0.333
    occupations:
  0.937  0.000  0.000
  0.000  0.937  0.000
  0.000  0.000  0.937
atomic mag. moment =     0.000002
N of occupied +U levels = 114.6264770
 --- exit write_ns ---

     total cpu time spent up to now is       65.1 secs

     End of self-consistent calculation
 --- enter write_ns ---
 LDA+U parameters:
U( 1)     =  0.00000000
alpha( 1) =  0.00000000
U( 2)     =  0.00000000
alpha( 2) =  0.00000000
U( 3)     =  0.00000000
alpha( 3) =  0.00000000
U( 4)     =  0.00000000
alpha( 4) =  0.00000000
atom    1   Tr[ns(na)] (up, down, total) =   4.95241  3.75362  8.70603
   spin  1
    eigenvalues: 
  0.980  0.980  0.997  0.997  0.997
    eigenvectors:
  1.000  0.000  0.000  0.000  0.000
  0.000  0.000  0.167  0.500  0.333
  0.000  0.000  0.167  0.500  0.333
  0.000  1.000  0.000  0.000  0.000
  0.000  0.000  0.667  0.000  0.333
    occupations:
  0.980  0.000  0.000  0.000  0.000
  0.000  0.997  0.000  0.000  0.000
  0.000  0.000  0.997  0.000  0.000
  0.000  0.000  0.000  0.980  0.000
  0.000  0.000  0.000  0.000  0.997
   spin  2
    eigenvalues: 
  0.384  0.384  0.995  0.995  0.995
    eigenvectors:
  0.000  1.000  0.000  0.000  0.000
  0.000  0.000  0.500  0.167  0.333
  0.000  0.000  0.500  0.167  0.333
  1.000  0.000  0.000  0.000  0.000
  0.000  0.000  0.000  0.666  0.334
    occupations:
  0.384  0.001  0.001  0.000  0.001
  0.001  0.995  0.000  0.001  0.000
  0.001  0.000  0.995 -0.001  0.000
  0.000  0.001 -0.001  0.384  0.000
  0.001  0.000  0.000  0.000  0.995
atomic mag. moment =     1.198792
atom    2   Tr[ns(na)] (up, down, total) =   4.95241  3.75362  8.70603
   spin  1
    eigenvalues: 
  0.980  0.980  0.997  0.997  0.997
    eigenvectors:
  0.250  0.750  0.000  0.000  0.000
  0.000  0.000  0.667  0.000  0.333
  0.000  0.000  0.167  0.500  0.333
  0.750  0.250  0.000  0.000  0.000
  0.000  0.000  0.167  0.500  0.333
    occupations:
  0.980  0.000  0.000  0.000  0.000
  0.000  0.997  0.000  0.000  0.000
  0.000  0.000  0.997  0.000  0.000
  0.000  0.000  0.000  0.980  0.000
  0.000  0.000  0.000  0.000  0.997
   spin  2
    eigenvalues: 
  0.384  0.384  0.995  0.995  0.995
    eigenvectors:
  0.750  0.250  0.000  0.000  0.000
  0.000  0.000  0.000  0.666  0.334
  0.000  0.000  0.500  0.167  0.333
  0.250  0.750  0.000  0.000  0.000
  0.000  0.000  0.500  0.167  0.333
    occupations:
  0.384  0.001  0.001  0.000  0.001
  0.001  0.995  0.000  0.001  0.000
  0.001  0.000  0.995 -0.001  0.000
  0.000  0.001 -0.001  0.384  0.000
  0.001  0.000  0.000  0.000  0.995
atomic mag. moment =     1.198792
atom    3   Tr[ns(na)] (up, down, total) =   4.95241  3.75362  8.70603
   spin  1
    eigenvalues: 
  0.980  0.980  0.997  0.997  0.997
    eigenvectors:
  0.250  0.750  0.000  0.000  0.000
  0.000  0.000  0.167  0.500  0.333
  0.000  0.000  0.667  0.000  0.333
  0.750  0.250  0.000  0.000  0.000
  0.000  0.000  0.167  0.500  0.333
    occupations:
  0.980  0.000  0.000  0.000  0.000
  0.000  0.997  0.000  0.000  0.000
  0.000  0.000  0.997  0.000  0.000
  0.000  0.000  0.000  0.980  0.000
  0.000  0.000  0.000  0.000  0.997
   spin  2
    eigenvalues: 
  0.384  0.384  0.995  0.995  0.995
    eigenvectors:
  0.750  0.250  0.000  0.000  0.000
  0.000  0.000  0.500  0.167  0.333
  0.000  0.000  0.000  0.666  0.334
  0.250  0.750  0.000  0.000  0.000
  0.000  0.000  0.500  0.167  0.333
    occupations:
  0.384  0.001  0.001  0.000  0.001
  0.001  0.995  0.000  0.001  0.000
  0.001  0.000  0.995 -0.001  0.000
  0.000  0.001 -0.001  0.384  0.000
  0.001  0.000  0.000  0.000  0.995
atomic mag. moment =     1.198792
atom    4   Tr[ns(na)] (up, down, total) =   4.95241  3.75359  8.70600
   spin  1
    eigenvalues: 
  0.980  0.980  0.997  0.997  0.997
    eigenvectors:
  0.077  0.923  0.000  0.000  0.000
  0.000  0.000  0.101  0.565  0.333
  0.000  0.000  0.242  0.424  0.333
  0.923  0.077  0.000  0.000  0.000
  0.000  0.000  0.657  0.010  0.333
    occupations:
  0.980  0.000  0.000  0.000  0.000
  0.000  0.997  0.000  0.000  0.000
  0.000  0.000  0.997  0.000  0.000
  0.000  0.000  0.000  0.980  0.000
  0.000  0.000  0.000  0.000  0.997
   spin  2
    eigenvalues: 
  0.384  0.384  0.995  0.995  0.995
    eigenvectors:
  0.336  0.664  0.000  0.000  0.000
  0.000  0.000  0.231  0.436  0.333
  0.000  0.000  0.110  0.557  0.333
  0.664  0.336  0.000  0.000  0.000
  0.000  0.000  0.659  0.007  0.333
    occupations:
  0.384  0.001  0.001  0.000  0.001
  0.001  0.995  0.000  0.001  0.000
  0.001  0.000  0.995 -0.001  0.000
  0.000  0.001 -0.001  0.384  0.000
  0.001  0.000  0.000  0.000  0.995
atomic mag. moment =     1.198814
atom    5   Tr[ns(na)] (up, down, total) =   3.75362  4.95241  8.70603
   spin  1
    eigenvalues: 
  0.384  0.384  0.995  0.995  0.995
    eigenvectors:
  0.716  0.284  0.000  0.000  0.000
  0.000  0.000  0.129  0.538  0.333
  0.000  0.000  0.208  0.459  0.333
  0.284  0.716  0.000  0.000  0.000
  0.000  0.000  0.664  0.003  0.333
    occupations:
  0.384  0.001  0.001  0.000  0.001
  0.001  0.995  0.000  0.001  0.000
  0.001  0.000  0.995 -0.001  0.000
  0.000  0.001 -0.001  0.384  0.000
  0.001  0.000  0.000  0.000  0.995
   spin  2
    eigenvalues: 
  0.980  0.980  0.997  0.997  0.997
    eigenvectors:
  0.268  0.732  0.000  0.000  0.000
  0.000  0.000  0.155  0.511  0.333
  0.000  0.000  0.178  0.489  0.333
  0.732  0.268  0.000  0.000  0.000
  0.000  0.000  0.666  0.000  0.333
    occupations:
  0.980  0.000  0.000  0.000  0.000
  0.000  0.997  0.000  0.000  0.000
  0.000  0.000  0.997  0.000  0.000
  0.000  0.000  0.000  0.980  0.000
  0.000  0.000  0.000  0.000  0.997
atomic mag. moment =    -1.198794
atom    6   Tr[ns(na)] (up, down, total) =   3.75361  4.95241  8.70602
   spin  1
    eigenvalues: 
  0.384  0.384  0.995  0.995  0.995
    eigenvectors:
  0.750  0.250  0.000  0.000  0.000
  0.000  0.000  0.167  0.500  0.333
  0.000  0.000  0.667  0.000  0.333
  0.250  0.750  0.000  0.000  0.000
  0.000  0.000  0.167  0.500  0.333
    occupations:
  0.384  0.001  0.001  0.000  0.001
  0.001  0.995  0.000  0.001  0.000
  0.001  0.000  0.995 -0.001  0.000
  0.000  0.001 -0.001  0.384  0.000
  0.001  0.000  0.000  0.000  0.995
   spin  2
    eigenvalues: 
  0.980  0.980  0.997  0.997  0.997
    eigenvectors:
  0.250  0.750  0.000  0.000  0.000
  0.000  0.000  0.500  0.167  0.333
  0.000  0.000  0.000  0.665  0.335
  0.750  0.250  0.000  0.000  0.000
  0.000  0.000  0.500  0.167  0.333
    occupations:
  0.980  0.000  0.000  0.000  0.000
  0.000  0.997  0.000  0.000  0.000
  0.000  0.000  0.997  0.000  0.000
  0.000  0.000  0.000  0.980  0.000
  0.000  0.000  0.000  0.000  0.997
atomic mag. moment =    -1.198801
atom    7   Tr[ns(na)] (up, down, total) =   3.75361  4.95241  8.70602
   spin  1
    eigenvalues: 
  0.384  0.384  0.995  0.995  0.995
    eigenvectors:
  0.750  0.250  0.000  0.000  0.000
  0.000  0.000  0.667  0.000  0.333
  0.000  0.000  0.167  0.500  0.333
  0.250  0.750  0.000  0.000  0.000
  0.000  0.000  0.167  0.500  0.333
    occupations:
  0.384  0.001  0.001  0.000  0.001
  0.001  0.995  0.000  0.001  0.000
  0.001  0.000  0.995 -0.001  0.000
  0.000  0.001 -0.001  0.384  0.000
  0.001  0.000  0.000  0.000  0.995
   spin  2
    eigenvalues: 
  0.980  0.980  0.997  0.997  0.997
    eigenvectors:
  0.250  0.750  0.000  0.000  0.000
  0.000  0.000  0.000  0.665  0.335
  0.000  0.000  0.500  0.167  0.333
  0.750  0.250  0.000  0.000  0.000
  0.000  0.000  0.500  0.167  0.333
    occupations:
  0.980  0.000  0.000  0.000  0.000
  0.000  0.997  0.000  0.000  0.000
  0.000  0.000  0.997  0.000  0.000
  0.000  0.000  0.000  0.980  0.000
  0.000  0.000  0.000  0.000  0.997
atomic mag. moment =    -1.198801
atom    8   Tr[ns(na)] (up, down, total) =   3.75361  4.95241  8.70602
   spin  1
    eigenvalues: 
  0.384  0.384  0.995  0.995  0.995
    eigenvectors:
  0.000  1.000  0.000  0.000  0.000
  0.000  0.000  0.167  0.500  0.333
  0.000  0.000  0.167  0.500  0.333
  1.000  0.000  0.000  0.000  0.000
  0.000  0.000  0.667  0.000  0.333
    occupations:
  0.384  0.001  0.001  0.000  0.001
  0.001  0.995  0.000  0.001  0.000
  0.001  0.000  0.995 -0.001  0.000
  0.000  0.001 -0.001  0.384  0.000
  0.001  0.000  0.000  0.000  0.995
   spin  2
    eigenvalues: 
  0.980  0.980  0.997  0.997  0.997
    eigenvectors:
  1.000  0.000  0.000  0.000  0.000
  0.000  0.000  0.500  0.167  0.333
  0.000  0.000  0.500  0.167  0.333
  0.000  1.000  0.000  0.000  0.000
  0.000  0.000  0.000  0.665  0.335
    occupations:
  0.980  0.000  0.000  0.000  0.000
  0.000  0.997  0.000  0.000  0.000
  0.000  0.000  0.997  0.000  0.000
  0.000  0.000  0.000  0.980  0.000
  0.000  0.000  0.000  0.000  0.997
atomic mag. moment =    -1.198801
atom    9   Tr[ns(na)] (up, down, total) =   2.81115  2.81114  5.62229
   spin  1
    eigenvalues: 
  0.937  0.937  0.938
    eigenvectors:
  0.420  0.246  0.333
  0.569  0.098  0.333
  0.011  0.655  0.333
    occupations:
  0.937  0.000  0.000
  0.000  0.937  0.000
  0.000  0.000  0.937
   spin  2
    eigenvalues: 
  0.937  0.937  0.938
    eigenvectors:
  0.440  0.226  0.333
  0.553  0.114  0.333
  0.006  0.660  0.333
    occupations:
  0.937  0.000  0.000
  0.000  0.937  0.000
  0.000  0.000  0.937
atomic mag. moment =     0.000002
atom   10   Tr[ns(na)] (up, down, total) =   2.81114  2.81114  5.62229
   spin  1
    eigenvalues: 
  0.937  0.937  0.938
    eigenvectors:
  0.667  0.000  0.333
  0.167  0.500  0.333
  0.167  0.500  0.333
    occupations:
  0.937  0.000  0.000
  0.000  0.937  0.000
  0.000  0.000  0.937
   spin  2
    eigenvalues: 
  0.937  0.937  0.938
    eigenvectors:
  0.000  0.666  0.334
  0.500  0.167  0.333
  0.500  0.167  0.333
    occupations:
  0.937  0.000  0.000
  0.000  0.937  0.000
  0.000  0.000  0.937
atomic mag. moment =     0.000000
atom   11   Tr[ns(na)] (up, down, total) =   2.81114  2.81114  5.62229
   spin  1
    eigenvalues: 
  0.937  0.937  0.938
    eigenvectors:
  0.167  0.500  0.333
  0.667  0.000  0.333
  0.167  0.500  0.333
    occupations:
  0.937  0.000  0.000
  0.000  0.937  0.000
  0.000  0.000  0.937
   spin  2
    eigenvalues: 
  0.937  0.937  0.938
    eigenvectors:
  0.500  0.167  0.333
  0.000  0.666  0.334
  0.500  0.167  0.333
    occupations:
  0.937  0.000  0.000
  0.000  0.937  0.000
  0.000  0.000  0.937
atomic mag. moment =     0.000000
atom   12   Tr[ns(na)] (up, down, total) =   2.81114  2.81114  5.62229
   spin  1
    eigenvalues: 
  0.937  0.937  0.938
    eigenvectors:
  0.167  0.500  0.333
  0.167  0.500  0.333
  0.667  0.000  0.333
    occupations:
  0.937  0.000  0.000
  0.000  0.937  0.000
  0.000  0.000  0.937
   spin  2
    eigenvalues: 
  0.937  0.937  0.938
    eigenvectors:
  0.500  0.167  0.333
  0.500  0.167  0.333
  0.000  0.666  0.334
    occupations:
  0.937  0.000  0.000
  0.000  0.937  0.000
  0.000  0.000  0.937
atomic mag. moment =     0.000000
atom   13   Tr[ns(na)] (up, down, total) =   2.81115  2.81115  5.62229
   spin  1
    eigenvalues: 
  0.937  0.937  0.938
    eigenvectors:
  0.167  0.500  0.333
  0.667  0.000  0.333
  0.167  0.500  0.333
    occupations:
  0.937  0.000  0.000
  0.000  0.937  0.000
  0.000  0.000  0.937
   spin  2
    eigenvalues: 
  0.937  0.937  0.938
    eigenvectors:
  0.500  0.167  0.333
  0.000  0.666  0.334
  0.500  0.167  0.333
    occupations:
  0.937  0.000  0.000
  0.000  0.937  0.000
  0.000  0.000  0.937
atomic mag. moment =     0.000000
atom   14   Tr[ns(na)] (up, down, total) =   2.81115  2.81115  5.62229
   spin  1
    eigenvalues: 
  0.937  0.937  0.938
    eigenvectors:
  0.167  0.500  0.333
  0.167  0.500  0.333
  0.667  0.000  0.333
    occupations:
  0.937  0.000  0.000
  0.000  0.937  0.000
  0.000  0.000  0.937
   spin  2
    eigenvalues: 
  0.937  0.937  0.938
    eigenvectors:
  0.500  0.167  0.333
  0.500  0.167  0.333
  0.000  0.666  0.334
    occupations:
  0.937  0.000  0.000
  0.000  0.937  0.000
  0.000  0.000  0.937
atomic mag. moment =     0.000000
atom   15   Tr[ns(na)] (up, down, total) =   2.81115  2.81115  5.62229
   spin  1
    eigenvalues: 
  0.937  0.937  0.938
    eigenvectors:
  0.667  0.000  0.333
  0.167  0.500  0.333
  0.167  0.500  0.333
    occupations:
  0.937  0.000  0.000
  0.000  0.937  0.000
  0.000  0.000  0.937
   spin  2
    eigenvalues: 
  0.937  0.937  0.938
    eigenvectors:
  0.000  0.666  0.334
  0.500  0.167  0.333
  0.500  0.167  0.333
    occupations:
  0.937  0.000  0.000
  0.000  0.937  0.000
  0.000  0.000  0.937
atomic mag. moment =     0.000000
atom   16   Tr[ns(na)] (up, down, total) =   2.81114  2.81114  5.62228
   spin  1
    eigenvalues: 
  0.937  0.937  0.938
    eigenvectors:
  0.386  0.281  0.333
  0.592  0.075  0.333
  0.022  0.645  0.333
    occupations:
  0.937  0.000  0.000
  0.000  0.937  0.000
  0.000  0.000  0.937
   spin  2
    eigenvalues: 
  0.937  0.937  0.938
    eigenvectors:
  0.398  0.269  0.333
  0.584  0.082  0.333
  0.018  0.649  0.333
    occupations:
  0.937  0.000  0.000
  0.000  0.937  0.000
  0.000  0.000  0.937
atomic mag. moment =     0.000002
N of occupied +U levels = 114.6264770
 --- exit write_ns ---

 ------ SPIN UP ------------


          k = 0.0000 0.0000 0.0000 (  2733 PWs)   bands (ev):

    -8.0785  -6.6875  -6.6871  -6.6871  -6.6871  -6.6187  -6.6187  -6.6187
     4.0280   4.0280   4.0280   4.0330   5.3280   5.3280   5.3280   6.5217
     6.5217   6.5313   6.5313   6.5313   6.5625   6.5625   6.5625   7.9527
     7.9527   7.9527   7.9568   7.9568   7.9568   8.8311   8.8311   8.8311
     9.2552   9.2552   9.2624   9.5585   9.5585   9.6939   9.8758   9.8758
     9.9427   9.9428   9.9428  10.2280  10.2280  10.2280  10.4851  10.4851
    10.4851  10.5991  10.5991  10.5991  10.9109  10.9109  11.0391  11.0391
    11.0391  11.1787  11.2632  11.2632  11.2632  11.3826  11.3826  11.3826
    13.5443  13.5443  13.6034  13.6034  13.6034  13.6876  13.6876  13.6876
    13.7598  17.7973  17.7999  17.7999  17.7999

          k =-0.1250 0.1250 0.1250 (  2743 PWs)   bands (ev):

    -7.9029  -6.9263  -6.6810  -6.6809  -6.6809  -6.6323  -6.6320  -6.6320
     4.3462   4.3462   4.3510   4.6034   5.3429   5.3429   5.3450   6.4322
     6.4405   6.4405   6.6293   6.6724   6.6724   6.6925   6.7362   7.1941
     7.1941   7.2333   7.6860   7.6860   7.6986   7.9652   8.3984   8.4064
     9.2794   9.3364   9.3364   9.6766   9.8227   9.9599  10.0414  10.0414
    10.1096  10.2181  10.2181  10.2472  10.3721  10.5190  10.5397  10.5397
    10.5501  10.6346  10.6866  10.6867  10.8965  10.9922  11.1142  11.1142
    11.1170  11.1773  11.2579  11.2579  11.2795  11.3128  11.3418  11.3418
    13.2116  13.2780  13.2780  13.2918  13.3819  13.4197  13.4197  13.4639
    14.7667  17.5938  18.6769  18.6785  18.6785

          k = 0.2500-0.2500-0.2500 (  2764 PWs)   bands (ev):

    -7.4454  -7.4454  -6.6642  -6.6642  -6.6602  -6.6602  -6.6558  -6.6558
     5.0499   5.0499   5.0643   5.0643   5.0711   5.0711   6.0917   6.0917
     6.3225   6.3225   6.3876   6.3876   6.4626   6.4626   6.8537   6.8537
     7.0122   7.0122   7.3112   7.3112   7.4842   7.4842   7.6354   7.6354
     9.6321   9.6321   9.8167   9.8167   9.8868   9.8868  10.0219  10.0220
    10.1583  10.1584  10.2209  10.2209  10.5324  10.5324  10.6417  10.6418
    10.6585  10.6585  10.8691  10.8691  10.9627  10.9628  11.2431  11.2431
    11.2519  11.2519  11.2965  11.2965  11.3290  11.3290  11.4316  11.4317
    13.0372  13.0372  13.0437  13.0437  13.0517  13.0517  13.0622  13.0622
    16.4826  16.4826  19.6527  19.6527  19.7119

          k = 0.0000 0.0000 0.2500 (  2706 PWs)   bands (ev):

    -7.8497  -6.8065  -6.7520  -6.7517  -6.7517  -6.7514  -6.5653  -6.5653
     4.4894   4.4894   4.4903   4.4946   5.2309   5.5189   5.5189   6.5257
     6.5257   6.5459   6.5827   6.5899   6.6187   6.6187   6.6775   7.0594
     7.0594   7.1660   7.1660   7.4593   7.9686   7.9737   8.6484   8.6575
     8.9536   9.5322   9.6264   9.6264   9.8118   9.9774  10.0546  10.0546
    10.0942  10.1097  10.1837  10.2767  10.2767  10.3949  10.4087  10.5430
    10.5430  10.6117  10.6117  10.6568  10.9095  11.0067  11.0067  11.0480
    11.0541  11.1675  11.2401  11.2924  11.2924  11.3453  11.3453  11.3770
    12.8757  13.0369  13.0369  13.0403  13.5216  13.5648  13.6425  13.6425
    15.2134  18.5668  18.5679  18.5679  18.5683

          k = 0.3750-0.3750-0.1250 (  2734 PWs)   bands (ev):

    -7.5001  -7.1696  -6.9648  -6.7688  -6.7686  -6.5939  -6.5541  -6.5538
     4.9613   4.9635   4.9752   5.3040   5.4213   5.4962   5.5176   6.1726
     6.2074   6.2332   6.2622   6.5858   6.5881   6.7421   6.7459   6.8580
     6.8867   6.9195   6.9900   7.3539   7.3729   7.7173   7.7570   8.0118
     9.4540   9.6489   9.8200   9.8925   9.9534   9.9661  10.0345  10.1360
    10.1387  10.1664  10.2082  10.2855  10.3134  10.3199  10.4753  10.5092
    10.7301  10.7358  10.7396  10.7516  10.8754  10.9036  11.0374  11.0753
    11.1651  11.1926  11.2230  11.2546  11.3294  11.3332  11.3512  11.4076
    12.7363  12.7801  12.8320  12.9284  13.2332  13.2562  13.3619  13.4307
    16.6942  17.6019  18.6704  19.3624  19.3640

          k = 0.2500-0.2500 0.0000 (  2742 PWs)   bands (ev):

    -7.6381  -7.0145  -7.0145  -6.7180  -6.7180  -6.6008  -6.6005  -6.5444
     4.7685   4.7735   5.0650   5.0650   5.2608   5.2608   5.6981   5.9615
     6.2832   6.2994   6.5243   6.7164   6.7424   6.7425   6.9110   6.9110
     6.9278   7.1564   7.1564   7.1861   7.4479   7.4479   7.6283   8.1210
     9.6562   9.6562   9.7876   9.8471   9.9034   9.9035  10.0423  10.1096
    10.1314  10.2244  10.2273  10.2274  10.2274  10.3598  10.3599  10.5137
    10.7166  10.7488  10.7488  10.8255  10.9009  11.0935  11.0935  11.1120
    11.2068  11.2069  11.2296  11.2408  11.2765  11.3427  11.4032  11.4032
    13.0399  13.0443  13.0551  13.0552  13.1118  13.1493  13.1493  13.2812
    16.0074  18.0612  18.0612  19.3780  19.3780

          k = 0.0000 0.0000-0.5000 (  2762 PWs)   bands (ev):

    -7.3086  -7.3086  -6.8145  -6.8144  -6.8143  -6.8143  -6.5111  -6.5111
     5.0176   5.0176   5.0246   5.0246   5.7671   5.7672   6.0978   6.0978
     6.1036   6.1036   6.4016   6.4016   6.6491   6.6492   6.6814   6.6814
     6.7209   6.7209   6.7273   6.7273   8.1473   8.1473   8.1584   8.1584
     9.2478   9.2478   9.9483   9.9484  10.0286  10.0287  10.0439  10.0439
    10.0470  10.0470  10.1679  10.1679  10.3480  10.3481  10.4944  10.4944
    10.5170  10.5171  10.5803  10.5804  10.9100  10.9100  11.0031  11.0031
    11.1464  11.1464  11.2246  11.2247  11.3343  11.3343  11.3388  11.3388
    12.4598  12.4598  12.7179  12.7179  13.5156  13.5156  13.6155  13.6155
    17.6668  17.6668  19.2517  19.2517  19.2525

          k = 0.0000 0.2500-0.5000 (  2740 PWs)   bands (ev):

    -7.1497  -7.1492  -7.1492  -7.1490  -6.5789  -6.5754  -6.5754  -6.5716
     5.2791   5.2791   5.2804   5.3263   5.3782   5.5402   5.5402   5.6517
     6.2219   6.2519   6.2519   6.2835   6.6179   6.6179   6.6312   6.7591
     6.8985   7.2656   7.2656   7.4597   7.4754   7.5033   7.5033   7.5550
     9.7095   9.7367   9.7367   9.8046   9.9847  10.0356  10.0356  10.0676
    10.1160  10.2698  10.2865  10.2866  10.3430  10.3430  10.3971  10.4624
    10.6137  10.6611  10.6612  10.6881  10.9457  10.9457  10.9664  10.9880
    11.1716  11.1834  11.1834  11.2776  11.2930  11.2970  11.3636  11.3636
    12.7721  12.8870  12.8870  13.0006  13.1523  13.1965  13.1965  13.2413
    18.0173  18.0361  18.0361  18.0565  20.8588

          k = 0.1250 0.1250 0.1250 (  2743 PWs)   bands (ev):

    -7.9030  -6.9266  -6.6817  -6.6817  -6.6817  -6.6312  -6.6312  -6.6311
     4.3454   4.3454   4.3454   4.6085   5.3417   5.3417   5.3417   6.4770
     6.4770   6.4770   6.6203   6.6204   6.6204   6.6945   6.6945   7.2111
     7.2111   7.2111   7.7040   7.7040   7.7040   7.9714   8.4506   8.4506
     9.2608   9.2608   9.2608   9.6170   9.6170  10.0007  10.0640  10.0640
    10.0640  10.2750  10.2750  10.2750  10.6017  10.6017  10.6017  10.6210
    10.6210  10.7224  10.7224  10.7224  10.9131  10.9131  10.9393  10.9393
    10.9393  11.0319  11.2554  11.2554  11.2555  11.3929  11.3929  11.3929
    13.3325  13.3325  13.3487  13.3487  13.3487  13.3562  13.3562  13.3562
    14.7670  17.5953  18.6755  18.6755  18.6755

          k =-0.2500-0.2500-0.2500 (  2764 PWs)   bands (ev):

    -7.4499  -7.4412  -6.6702  -6.6702  -6.6701  -6.6498  -6.6498  -6.6498
     5.0095   5.0095   5.0095   5.1107   5.1107   5.1107   6.0774   6.1164
     6.2585   6.2585   6.2585   6.6890   6.6890   6.6890   6.7484   6.7485
     6.7485   6.9782   6.9782   7.4453   7.4453   7.4453   7.8620   7.8620
     9.4898   9.4898   9.4898   9.6729   9.6729  10.1154  10.1199  10.1199
    10.1199  10.4481  10.4482  10.4482  10.5060  10.5060  10.5060  10.7255
    10.7255  10.8418  10.8418  10.8418  10.8698  11.0554  11.0554  11.0554
    11.2437  11.2437  11.2437  11.2990  11.2990  11.4007  11.4007  11.4007
    13.0385  13.0385  13.0385  13.0549  13.0549  13.0700  13.0700  13.0700
    16.4096  16.5597  19.6310  19.6310  19.6310

          k =-0.3750-0.3750-0.1250 (  2734 PWs)   bands (ev):

    -7.5002  -7.1698  -6.9648  -6.7688  -6.7688  -6.5937  -6.5538  -6.5538
     4.9609   4.9707   4.9707   5.2819   5.4358   5.4965   5.4965   6.2194
     6.2249   6.2249   6.2612   6.6510   6.6640   6.6640   6.6951   6.6951
     6.8263   7.0779   7.0779   7.2668   7.3778   7.7509   7.7587   8.0483
     9.3518   9.5421   9.7587   9.7587   9.7828  10.0582  10.0944  10.0944
    10.2854  10.2859  10.4192  10.4192  10.4402  10.5521  10.5521  10.5579
    10.5680  10.6485  10.6491  10.6491  10.8401  10.8789  10.8789  10.9581
    11.0692  11.2410  11.2727  11.2996  11.2996  11.3585  11.3585  11.4212
    12.6915  12.8374  12.8826  12.8826  13.2789  13.3334  13.3411  13.3411
    16.6935  17.6046  18.6699  19.3598  19.3598

          k = 0.3750 0.3750-0.1250 (  2734 PWs)   bands (ev):

    -7.5001  -7.1697  -6.9648  -6.7686  -6.7686  -6.5940  -6.5540  -6.5540
     4.9673   4.9715   4.9715   5.2417   5.4968   5.5013   5.5013   6.1197
     6.2270   6.2270   6.3423   6.5653   6.5653   6.6587   6.8184   6.8184
     6.8264   7.0393   7.0393   7.1535   7.5012   7.7428   7.7695   7.9970
     9.3794   9.5552   9.9419   9.9420  10.0194  10.0194  10.0411  10.0426
    10.0549  10.1758  10.2122  10.2122  10.3969  10.4413  10.4963  10.4963
    10.6574  10.6956  10.6957  10.7102  10.8943  10.9468  11.0939  11.0939
    11.2144  11.2144  11.2306  11.2676  11.2749  11.2768  11.3465  11.3465
    12.7385  12.7975  12.8798  12.8798  13.2526  13.3403  13.3404  13.3520
    16.6937  17.6030  18.6722  19.3607  19.3607

          k =-0.2500-0.2500 0.0000 (  2742 PWs)   bands (ev):

    -7.6381  -7.0147  -7.0146  -6.7183  -6.7183  -6.6001  -6.6001  -6.5445
     4.7689   4.7689   5.0739   5.0791   5.2398   5.2398   5.6998   5.9643
     6.3126   6.3126   6.5829   6.6741   6.6742   6.7876   6.8545   6.9193
     7.0129   7.1589   7.1589   7.2018   7.2019   7.4838   7.8305   8.1189
     9.5552   9.6069   9.6353   9.6354   9.7727  10.0728  10.0728  10.1293
    10.2413  10.2413  10.3044  10.3841  10.4461  10.5565  10.5586  10.5586
    10.6307  10.6630  10.6630  10.7412  10.7630  10.8190  11.0479  11.0479
    11.1031  11.2688  11.2688  11.3379  11.3681  11.3681  11.3837  11.4046
    13.0428  13.0447  13.0525  13.0525  13.0619  13.2045  13.2045  13.2339
    16.0087  18.0604  18.0622  19.3734  19.3734

 ------ SPIN DOWN ----------


          k = 0.0000 0.0000 0.0000 (  2733 PWs)   bands (ev):

    -8.0785  -6.6875  -6.6871  -6.6871  -6.6871  -6.6187  -6.6187  -6.6187
     4.0280   4.0280   4.0280   4.0330   5.3280   5.3280   5.3280   6.5217
     6.5217   6.5313   6.5313   6.5313   6.5625   6.5625   6.5625   7.9527
     7.9527   7.9527   7.9568   7.9568   7.9568   8.8311   8.8311   8.8311
     9.2552   9.2552   9.2624   9.5585   9.5585   9.6939   9.8758   9.8758
     9.9428   9.9428   9.9428  10.2280  10.2280  10.2280  10.4851  10.4851
    10.4851  10.5991  10.5991  10.5991  10.9109  10.9109  11.0391  11.0391
    11.0391  11.1787  11.2631  11.2632  11.2632  11.3826  11.3826  11.3826
    13.5442  13.5442  13.6034  13.6034  13.6034  13.6876  13.6876  13.6876
    13.7598  17.7973  17.7999  17.7999  17.7999

          k =-0.1250 0.1250 0.1250 (  2743 PWs)   bands (ev):

    -7.9029  -6.9263  -6.6810  -6.6809  -6.6809  -6.6323  -6.6320  -6.6320
     4.3462   4.3462   4.3510   4.6034   5.3429   5.3429   5.3450   6.4322
     6.4405   6.4405   6.6293   6.6724   6.6724   6.6925   6.7362   7.1941
     7.1941   7.2333   7.6860   7.6860   7.6986   7.9652   8.3984   8.4064
     9.2794   9.3364   9.3364   9.6766   9.8227   9.9599  10.0414  10.0414
    10.1096  10.2181  10.2181  10.2472  10.3721  10.5190  10.5397  10.5397
    10.5501  10.6346  10.6867  10.6867  10.8965  10.9922  11.1142  11.1142
    11.1170  11.1773  11.2579  11.2579  11.2794  11.3128  11.3417  11.3418
    13.2116  13.2780  13.2780  13.2918  13.3819  13.4197  13.4197  13.4639
    14.7667  17.5938  18.6769  18.6785  18.6785

          k = 0.2500-0.2500-0.2500 (  2764 PWs)   bands (ev):

    -7.4454  -7.4454  -6.6642  -6.6642  -6.6602  -6.6602  -6.6558  -6.6558
     5.0499   5.0499   5.0643   5.0643   5.0711   5.0711   6.0917   6.0917
     6.3225   6.3225   6.3876   6.3876   6.4626   6.4626   6.8537   6.8537
     7.0122   7.0122   7.3112   7.3112   7.4842   7.4842   7.6354   7.6354
     9.6321   9.6321   9.8167   9.8167   9.8868   9.8868  10.0220  10.0220
    10.1584  10.1584  10.2209  10.2209  10.5324  10.5324  10.6417  10.6418
    10.6584  10.6585  10.8691  10.8691  10.9627  10.9628  11.2431  11.2431
    11.2519  11.2519  11.2965  11.2965  11.3289  11.3290  11.4316  11.4317
    13.0372  13.0372  13.0436  13.0437  13.0517  13.0517  13.0621  13.0622
    16.4826  16.4826  19.6527  19.6527  19.7119

          k = 0.0000 0.0000 0.2500 (  2706 PWs)   bands (ev):

    -7.8497  -6.8065  -6.7520  -6.7517  -6.7517  -6.7514  -6.5653  -6.5653
     4.4894   4.4894   4.4903   4.4946   5.2309   5.5189   5.5189   6.5257
     6.5257   6.5459   6.5827   6.5899   6.6187   6.6187   6.6775   7.0594
     7.0594   7.1660   7.1660   7.4593   7.9686   7.9737   8.6484   8.6575
     8.9536   9.5322   9.6264   9.6264   9.8119   9.9774  10.0546  10.0546
    10.0942  10.1097  10.1837  10.2767  10.2767  10.3949  10.4087  10.5430
    10.5430  10.6117  10.6117  10.6568  10.9095  11.0067  11.0068  11.0480
    11.0541  11.1675  11.2401  11.2924  11.2924  11.3452  11.3453  11.3770
    12.8757  13.0369  13.0369  13.0402  13.5216  13.5648  13.6424  13.6425
    15.2134  18.5668  18.5679  18.5679  18.5683

          k = 0.3750-0.3750-0.1250 (  2734 PWs)   bands (ev):

    -7.5001  -7.1696  -6.9648  -6.7688  -6.7686  -6.5939  -6.5541  -6.5538
     4.9613   4.9635   4.9752   5.3040   5.4213   5.4962   5.5176   6.1726
     6.2074   6.2332   6.2622   6.5858   6.5881   6.7421   6.7459   6.8580
     6.8867   6.9195   6.9900   7.3539   7.3729   7.7173   7.7570   8.0118
     9.4540   9.6489   9.8200   9.8925   9.9535   9.9661  10.0345  10.1360
    10.1387  10.1664  10.2082  10.2855  10.3134  10.3199  10.4753  10.5092
    10.7301  10.7358  10.7396  10.7516  10.8754  10.9036  11.0374  11.0753
    11.1651  11.1926  11.2230  11.2546  11.3294  11.3332  11.3512  11.4076
    12.7363  12.7801  12.8320  12.9284  13.2332  13.2562  13.3619  13.4307
    16.6942  17.6019  18.6704  19.3624  19.3640

          k = 0.2500-0.2500 0.0000 (  2742 PWs)   bands (ev):

    -7.6381  -7.0145  -7.0145  -6.7180  -6.7180  -6.6008  -6.6005  -6.5444
     4.7685   4.7735   5.0650   5.0650   5.2608   5.2608   5.6981   5.9615
     6.2832   6.2994   6.5243   6.7164   6.7424   6.7425   6.9110   6.9110
     6.9278   7.1564   7.1564   7.1861   7.4479   7.4479   7.6283   8.1210
     9.6562   9.6562   9.7876   9.8471   9.9034   9.9035  10.0423  10.1096
    10.1314  10.2244  10.2273  10.2274  10.2274  10.3599  10.3599  10.5138
    10.7166  10.7488  10.7488  10.8255  10.9008  11.0935  11.0935  11.1120
    11.2068  11.2069  11.2296  11.2408  11.2765  11.3427  11.4032  11.4032
    13.0398  13.0442  13.0551  13.0552  13.1118  13.1493  13.1493  13.2812
    16.0074  18.0612  18.0612  19.3780  19.3780

          k = 0.0000 0.0000-0.5000 (  2762 PWs)   bands (ev):

    -7.3086  -7.3086  -6.8145  -6.8144  -6.8143  -6.8143  -6.5111  -6.5111
     5.0176   5.0176   5.0246   5.0246   5.7671   5.7672   6.0978   6.0978
     6.1036   6.1036   6.4016   6.4016   6.6491   6.6491   6.6814   6.6814
     6.7209   6.7209   6.7273   6.7273   8.1473   8.1473   8.1584   8.1584
     9.2478   9.2478   9.9483   9.9483  10.0287  10.0287  10.0439  10.0439
    10.0470  10.0470  10.1679  10.1679  10.3481  10.3481  10.4944  10.4944
    10.5170  10.5171  10.5804  10.5804  10.9100  10.9100  11.0030  11.0031
    11.1463  11.1464  11.2246  11.2247  11.3342  11.3343  11.3388  11.3388
    12.4598  12.4598  12.7178  12.7179  13.5156  13.5156  13.6155  13.6155
    17.6668  17.6668  19.2517  19.2517  19.2525

          k = 0.0000 0.2500-0.5000 (  2740 PWs)   bands (ev):

    -7.1497  -7.1492  -7.1492  -7.1490  -6.5789  -6.5754  -6.5754  -6.5716
     5.2791   5.2791   5.2804   5.3263   5.3782   5.5402   5.5402   5.6517
     6.2219   6.2519   6.2519   6.2835   6.6179   6.6179   6.6312   6.7591
     6.8985   7.2656   7.2656   7.4597   7.4754   7.5033   7.5033   7.5550
     9.7095   9.7367   9.7367   9.8046   9.9847  10.0356  10.0356  10.0676
    10.1160  10.2698  10.2865  10.2866  10.3430  10.3430  10.3971  10.4624
    10.6137  10.6612  10.6612  10.6881  10.9457  10.9457  10.9664  10.9880
    11.1716  11.1833  11.1834  11.2775  11.2929  11.2970  11.3636  11.3636
    12.7721  12.8870  12.8870  13.0006  13.1523  13.1965  13.1966  13.2413
    18.0173  18.0361  18.0361  18.0565  20.8588

          k = 0.1250 0.1250 0.1250 (  2743 PWs)   bands (ev):

    -7.9030  -6.9266  -6.6817  -6.6817  -6.6817  -6.6312  -6.6312  -6.6311
     4.3454   4.3454   4.3454   4.6085   5.3417   5.3417   5.3417   6.4770
     6.4770   6.4770   6.6204   6.6204   6.6204   6.6945   6.6945   7.2111
     7.2111   7.2111   7.7040   7.7040   7.7040   7.9714   8.4506   8.4506
     9.2608   9.2608   9.2608   9.6170   9.6170  10.0007  10.0640  10.0640
    10.0640  10.2750  10.2750  10.2750  10.6017  10.6017  10.6017  10.6210
    10.6210  10.7224  10.7224  10.7224  10.9131  10.9131  10.9393  10.9393
    10.9393  11.0319  11.2554  11.2554  11.2554  11.3929  11.3929  11.3930
    13.3324  13.3324  13.3487  13.3487  13.3487  13.3562  13.3562  13.3562
    14.7670  17.5953  18.6755  18.6755  18.6755

          k =-0.2500-0.2500-0.2500 (  2764 PWs)   bands (ev):

    -7.4499  -7.4412  -6.6702  -6.6702  -6.6702  -6.6498  -6.6498  -6.6498
     5.0095   5.0095   5.0095   5.1107   5.1107   5.1107   6.0774   6.1164
     6.2585   6.2585   6.2585   6.6890   6.6890   6.6890   6.7485   6.7485
     6.7485   6.9782   6.9782   7.4453   7.4453   7.4453   7.8620   7.8620
     9.4898   9.4898   9.4898   9.6729   9.6729  10.1154  10.1199  10.1199
    10.1199  10.4481  10.4481  10.4482  10.5060  10.5060  10.5060  10.7255
    10.7255  10.8418  10.8418  10.8418  10.8698  11.0554  11.0554  11.0554
    11.2437  11.2437  11.2437  11.2990  11.2990  11.4007  11.4007  11.4007
    13.0385  13.0385  13.0385  13.0549  13.0549  13.0699  13.0700  13.0700
    16.4096  16.5597  19.6310  19.6310  19.6310

          k =-0.3750-0.3750-0.1250 (  2734 PWs)   bands (ev):

    -7.5002  -7.1698  -6.9648  -6.7688  -6.7688  -6.5937  -6.5538  -6.5538
     4.9609   4.9707   4.9707   5.2819   5.4358   5.4965   5.4965   6.2194
     6.2249   6.2249   6.2612   6.6510   6.6640   6.6640   6.6951   6.6951
     6.8263   7.0779   7.0779   7.2668   7.3778   7.7509   7.7587   8.0483
     9.3518   9.5421   9.7587   9.7587   9.7828  10.0582  10.0944  10.0944
    10.2854  10.2859  10.4192  10.4192  10.4402  10.5521  10.5521  10.5579
    10.5680  10.6485  10.6491  10.6491  10.8401  10.8789  10.8789  10.9581
    11.0692  11.2410  11.2726  11.2996  11.2996  11.3585  11.3585  11.4211
    12.6915  12.8374  12.8826  12.8826  13.2789  13.3334  13.3410  13.3411
    16.6935  17.6046  18.6699  19.3598  19.3598

          k = 0.3750 0.3750-0.1250 (  2734 PWs)   bands (ev):

    -7.5001  -7.1697  -6.9648  -6.7686  -6.7686  -6.5940  -6.5540  -6.5540
     4.9673   4.9715   4.9715   5.2417   5.4968   5.5013   5.5013   6.1197
     6.2270   6.2270   6.3423   6.5653   6.5653   6.6587   6.8184   6.8184
     6.8264   7.0393   7.0393   7.1535   7.5012   7.7428   7.7695   7.9970
     9.3794   9.5553   9.9420   9.9420  10.0194  10.0194  10.0411  10.0427
    10.0549  10.1758  10.2122  10.2122  10.3969  10.4413  10.4963  10.4963
    10.6574  10.6956  10.6956  10.7102  10.8943  10.9468  11.0938  11.0939
    11.2144  11.2144  11.2306  11.2676  11.2749  11.2768  11.3464  11.3465
    12.7385  12.7975  12.8798  12.8798  13.2526  13.3403  13.3404  13.3520
    16.6937  17.6030  18.6722  19.3607  19.3607

          k =-0.2500-0.2500 0.0000 (  2742 PWs)   bands (ev):

    -7.6381  -7.0147  -7.0146  -6.7183  -6.7183  -6.6001  -6.6001  -6.5445
     4.7689   4.7689   5.0739   5.0791   5.2398   5.2398   5.6998   5.9643
     6.3126   6.3126   6.5829   6.6742   6.6742   6.7876   6.8545   6.9193
     7.0129   7.1589   7.1589   7.2018   7.2018   7.4838   7.8305   8.1189
     9.5552   9.6069   9.6354   9.6354   9.7727  10.0728  10.0728  10.1293
    10.2413  10.2413  10.3044  10.3841  10.4461  10.5565  10.5586  10.5586
    10.6307  10.6630  10.6630  10.7412  10.7630  10.8190  11.0478  11.0479
    11.1031  11.2688  11.2688  11.3379  11.3680  11.3681  11.3837  11.4046
    13.0428  13.0447  13.0525  13.0525  13.0619  13.2044  13.2045  13.2339
    16.0087  18.0604  18.0622  19.3734  19.3734

     the Fermi energy is    11.9554 ev

!    total energy              =    -942.01610088 Ry
     Harris-Foulkes estimate   =    -942.01610088 Ry
     estimated scf accuracy    <          3.7E-09 Ry

     The total energy is the sum of the following terms:

     one-electron contribution =     -56.32872451 Ry
     hartree contribution      =     175.71072690 Ry
     xc contribution           =    -297.54069743 Ry
     ewald contribution        =    -763.85740583 Ry
     Hubbard energy            =       0.00000000 Ry
     smearing contrib. (-TS)   =       0.00000000 Ry

     total magnetization       =     0.00 Bohr mag/cell
     absolute magnetization    =    12.29 Bohr mag/cell

     convergence has been achieved in   1 iterations

     Writing output data file nio.save
 
     init_run     :     13.54s CPU     15.34s WALL (       1 calls)
     electrons    :     47.29s CPU     49.55s WALL (       1 calls)

     Called by init_run:
     wfcinit      :      0.66s CPU      1.37s WALL (       1 calls)
     potinit      :      1.12s CPU      1.35s WALL (       1 calls)

     Called by electrons:
     c_bands      :     24.44s CPU     25.41s WALL (       1 calls)
     sum_band     :     12.55s CPU     12.92s WALL (       1 calls)
     v_of_rho     :      1.94s CPU      2.19s WALL (       2 calls)
     newd         :     18.01s CPU     19.54s WALL (       2 calls)
     mix_rho      :      0.00s CPU      0.00s WALL (       1 calls)

     Called by c_bands:
     init_us_2    :      0.18s CPU      0.21s WALL (      21 calls)
     cegterg      :     24.03s CPU     24.92s WALL (       7 calls)

     Called by *egterg:
     h_psi        :     13.49s CPU     14.05s WALL (      84 calls)
     s_psi        :      1.63s CPU      1.67s WALL (      91 calls)
     g_psi        :      0.08s CPU      0.07s WALL (      77 calls)
     cdiaghg      :      4.51s CPU      4.51s WALL (      77 calls)

     Called by h_psi:
     add_vuspsi   :      1.38s CPU      1.37s WALL (      84 calls)

     General routines
     calbec       :      2.51s CPU      2.52s WALL (     189 calls)
     fft          :      1.39s CPU      1.56s WALL (      50 calls)
     ffts         :      0.01s CPU      0.02s WALL (       6 calls)
     fftw         :      6.88s CPU      7.56s WALL (    4077 calls)
     interpolate  :      0.20s CPU      0.26s WALL (       6 calls)
     davcio       :      0.00s CPU      0.85s WALL (      56 calls)
 
     Parallel routines
     fft_scatter  :      1.24s CPU      1.54s WALL (    4133 calls)
     EXX routines
 
     PWSCF        :  1m 1.17s CPU     1m 5.38s WALL

 
   This run was terminated on:  17:21:59  16Jun2012            

=------------------------------------------------------------------------------=
   JOB DONE.
=------------------------------------------------------------------------------=
