
     Program PWSCF v.5.1 starts on 30Jun2014 at 17:32:56 

     This program is part of the open-source Quantum ESPRESSO suite
     for quantum simulation of materials; please cite
         "P. Giannozzi et al., J. Phys.:Condens. Matter 21 395502 (2009);
          URL http://www.quantum-espresso.org", 
     in publications or presentations arising from this work. More details at
     http://www.quantum-espresso.org/quote

     Parallel version (MPI), running on     4 processors
     R & G space division:  proc/nbgrp/npool/nimage =       4
     Waiting for input...
     Reading input from standard input

     Current dimensions of program PWSCF are:
     Max number of different atomic species (ntypx) = 10
     Max number of k-points (npk) =  40000
     Max angular momentum in pseudopotentials (lmaxx) =  3
               file Fe.pbe-nd-rrkjus.UPF: wavefunction(s)  4S renormalized
               file Fe.pbe-nd-rrkjus.UPF: wavefunction(s)  4S renormalized

     Subspace diagonalization in iterative solution of the eigenvalue problem:
     a serial algorithm will be used

 
     Parallelization info
     --------------------
     sticks:   dense  smooth     PW     G-vecs:    dense   smooth      PW
     Min         211      71     24                 4581      891     184
     Max         212      72     25                 4582      900     187
     Sum         845     285     97                18325     3575     739
 
     Generating pointlists ...
     new r_m :   0.3572 (alat units)  1.9362 (a.u.) for type    1
     new r_m :   0.3572 (alat units)  1.9362 (a.u.) for type    2


     bravais-lattice index     =            1
     lattice parameter (alat)  =       5.4200  a.u.
     unit-cell volume          =     159.2201 (a.u.)^3
     number of atoms/cell      =            2
     number of atomic types    =            2
     number of electrons       =        16.00
     number of Kohn-Sham states=           14
     kinetic-energy cutoff     =      30.0000  Ry
     charge density cutoff     =     360.0000  Ry
     convergence threshold     =      1.0E-09
     mixing beta               =       0.7000
     number of iterations used =            8  plain     mixing
     Exchange-correlation      =  SLA  PW   PBE  PBE ( 1  4  3  4 0)

     celldm(1)=   5.420000  celldm(2)=   0.000000  celldm(3)=   0.000000
     celldm(4)=   0.000000  celldm(5)=   0.000000  celldm(6)=   0.000000

     crystal axes: (cart. coord. in units of alat)
               a(1) = (   1.000000   0.000000   0.000000 )  
               a(2) = (   0.000000   1.000000   0.000000 )  
               a(3) = (   0.000000   0.000000   1.000000 )  

     reciprocal axes: (cart. coord. in units 2 pi/alat)
               b(1) = (  1.000000  0.000000  0.000000 )  
               b(2) = (  0.000000  1.000000  0.000000 )  
               b(3) = (  0.000000  0.000000  1.000000 )  


     PseudoPot. # 1 for Fe read from file:
     ../pseudo/Fe.pbe-nd-rrkjus.UPF
     MD5 check sum: 23c640529ef232ac9996b4ec1b0ce2fd
     Pseudo is Ultrasoft + core correction, Zval =  8.0
     Generated by new atomic code, or converted to UPF format
     Using radial grid of  957 points,  6 beta functions with: 
                l(1) =   0
                l(2) =   0
                l(3) =   1
                l(4) =   1
                l(5) =   2
                l(6) =   2
     Q(r) pseudized with 0 coefficients 


     PseudoPot. # 2 for Fe read from file:
     ../pseudo/Fe.pbe-nd-rrkjus.UPF
     MD5 check sum: 23c640529ef232ac9996b4ec1b0ce2fd
     Pseudo is Ultrasoft + core correction, Zval =  8.0
     Generated by new atomic code, or converted to UPF format
     Using radial grid of  957 points,  6 beta functions with: 
                l(1) =   0
                l(2) =   0
                l(3) =   1
                l(4) =   1
                l(5) =   2
                l(6) =   2
     Q(r) pseudized with 0 coefficients 


     atomic species   valence    mass     pseudopotential
        Fe1            8.00     1.00000     Fe( 1.00)
        Fe             8.00     1.00000     Fe( 1.00)

     Starting magnetic structure 
     atomic species   magnetization
        Fe1          0.600
        Fe           0.600


     Simplified LDA+U calculation (l_max = 2) with parameters (eV):
     atomic species    L          U    alpha       J0     beta
        Fe1            2     0.0000   0.0500   0.0000   0.0000
        Fe             2     0.0000   0.0000   0.0000   0.0000



     48 Sym. Ops., with inversion, found


                                    s                        frac. trans.

      isym =  1     identity                                     

 cryst.   s( 1) = (     1          0          0      )
                  (     0          1          0      )
                  (     0          0          1      )

 cart.    s( 1) = (  1.0000000  0.0000000  0.0000000 )
                  (  0.0000000  1.0000000  0.0000000 )
                  (  0.0000000  0.0000000  1.0000000 )


      isym =  2     180 deg rotation - cart. axis [0,0,1]        

 cryst.   s( 2) = (    -1          0          0      )
                  (     0         -1          0      )
                  (     0          0          1      )

 cart.    s( 2) = ( -1.0000000  0.0000000  0.0000000 )
                  (  0.0000000 -1.0000000  0.0000000 )
                  (  0.0000000  0.0000000  1.0000000 )


      isym =  3     180 deg rotation - cart. axis [0,1,0]        

 cryst.   s( 3) = (    -1          0          0      )
                  (     0          1          0      )
                  (     0          0         -1      )

 cart.    s( 3) = ( -1.0000000  0.0000000  0.0000000 )
                  (  0.0000000  1.0000000  0.0000000 )
                  (  0.0000000  0.0000000 -1.0000000 )


      isym =  4     180 deg rotation - cart. axis [1,0,0]        

 cryst.   s( 4) = (     1          0          0      )
                  (     0         -1          0      )
                  (     0          0         -1      )

 cart.    s( 4) = (  1.0000000  0.0000000  0.0000000 )
                  (  0.0000000 -1.0000000  0.0000000 )
                  (  0.0000000  0.0000000 -1.0000000 )


      isym =  5     180 deg rotation - cart. axis [1,1,0]        

 cryst.   s( 5) = (     0          1          0      )
                  (     1          0          0      )
                  (     0          0         -1      )

 cart.    s( 5) = (  0.0000000  1.0000000  0.0000000 )
                  (  1.0000000  0.0000000  0.0000000 )
                  (  0.0000000  0.0000000 -1.0000000 )


      isym =  6     180 deg rotation - cart. axis [1,-1,0]       

 cryst.   s( 6) = (     0         -1          0      )
                  (    -1          0          0      )
                  (     0          0         -1      )

 cart.    s( 6) = (  0.0000000 -1.0000000  0.0000000 )
                  ( -1.0000000  0.0000000  0.0000000 )
                  (  0.0000000  0.0000000 -1.0000000 )


      isym =  7      90 deg rotation - cart. axis [0,0,-1]       

 cryst.   s( 7) = (     0         -1          0      )
                  (     1          0          0      )
                  (     0          0          1      )

 cart.    s( 7) = (  0.0000000  1.0000000  0.0000000 )
                  ( -1.0000000  0.0000000  0.0000000 )
                  (  0.0000000  0.0000000  1.0000000 )


      isym =  8      90 deg rotation - cart. axis [0,0,1]        

 cryst.   s( 8) = (     0          1          0      )
                  (    -1          0          0      )
                  (     0          0          1      )

 cart.    s( 8) = (  0.0000000 -1.0000000  0.0000000 )
                  (  1.0000000  0.0000000  0.0000000 )
                  (  0.0000000  0.0000000  1.0000000 )


      isym =  9     180 deg rotation - cart. axis [1,0,1]        

 cryst.   s( 9) = (     0          0          1      )
                  (     0         -1          0      )
                  (     1          0          0      )

 cart.    s( 9) = (  0.0000000  0.0000000  1.0000000 )
                  (  0.0000000 -1.0000000  0.0000000 )
                  (  1.0000000  0.0000000  0.0000000 )


      isym = 10     180 deg rotation - cart. axis [-1,0,1]       

 cryst.   s(10) = (     0          0         -1      )
                  (     0         -1          0      )
                  (    -1          0          0      )

 cart.    s(10) = (  0.0000000  0.0000000 -1.0000000 )
                  (  0.0000000 -1.0000000  0.0000000 )
                  ( -1.0000000  0.0000000  0.0000000 )


      isym = 11      90 deg rotation - cart. axis [0,1,0]        

 cryst.   s(11) = (     0          0         -1      )
                  (     0          1          0      )
                  (     1          0          0      )

 cart.    s(11) = (  0.0000000  0.0000000  1.0000000 )
                  (  0.0000000  1.0000000  0.0000000 )
                  ( -1.0000000  0.0000000  0.0000000 )


      isym = 12      90 deg rotation - cart. axis [0,-1,0]       

 cryst.   s(12) = (     0          0          1      )
                  (     0          1          0      )
                  (    -1          0          0      )

 cart.    s(12) = (  0.0000000  0.0000000 -1.0000000 )
                  (  0.0000000  1.0000000  0.0000000 )
                  (  1.0000000  0.0000000  0.0000000 )


      isym = 13     180 deg rotation - cart. axis [0,1,1]        

 cryst.   s(13) = (    -1          0          0      )
                  (     0          0          1      )
                  (     0          1          0      )

 cart.    s(13) = ( -1.0000000  0.0000000  0.0000000 )
                  (  0.0000000  0.0000000  1.0000000 )
                  (  0.0000000  1.0000000  0.0000000 )


      isym = 14     180 deg rotation - cart. axis [0,1,-1]       

 cryst.   s(14) = (    -1          0          0      )
                  (     0          0         -1      )
                  (     0         -1          0      )

 cart.    s(14) = ( -1.0000000  0.0000000  0.0000000 )
                  (  0.0000000  0.0000000 -1.0000000 )
                  (  0.0000000 -1.0000000  0.0000000 )


      isym = 15      90 deg rotation - cart. axis [-1,0,0]       

 cryst.   s(15) = (     1          0          0      )
                  (     0          0         -1      )
                  (     0          1          0      )

 cart.    s(15) = (  1.0000000  0.0000000  0.0000000 )
                  (  0.0000000  0.0000000  1.0000000 )
                  (  0.0000000 -1.0000000  0.0000000 )


      isym = 16      90 deg rotation - cart. axis [1,0,0]        

 cryst.   s(16) = (     1          0          0      )
                  (     0          0          1      )
                  (     0         -1          0      )

 cart.    s(16) = (  1.0000000  0.0000000  0.0000000 )
                  (  0.0000000  0.0000000 -1.0000000 )
                  (  0.0000000  1.0000000  0.0000000 )


      isym = 17     120 deg rotation - cart. axis [-1,-1,-1]     

 cryst.   s(17) = (     0          0          1      )
                  (     1          0          0      )
                  (     0          1          0      )

 cart.    s(17) = (  0.0000000  1.0000000  0.0000000 )
                  (  0.0000000  0.0000000  1.0000000 )
                  (  1.0000000  0.0000000  0.0000000 )


      isym = 18     120 deg rotation - cart. axis [-1,1,1]       

 cryst.   s(18) = (     0          0         -1      )
                  (    -1          0          0      )
                  (     0          1          0      )

 cart.    s(18) = (  0.0000000 -1.0000000  0.0000000 )
                  (  0.0000000  0.0000000  1.0000000 )
                  ( -1.0000000  0.0000000  0.0000000 )


      isym = 19     120 deg rotation - cart. axis [1,1,-1]       

 cryst.   s(19) = (     0          0         -1      )
                  (     1          0          0      )
                  (     0         -1          0      )

 cart.    s(19) = (  0.0000000  1.0000000  0.0000000 )
                  (  0.0000000  0.0000000 -1.0000000 )
                  ( -1.0000000  0.0000000  0.0000000 )


      isym = 20     120 deg rotation - cart. axis [1,-1,1]       

 cryst.   s(20) = (     0          0          1      )
                  (    -1          0          0      )
                  (     0         -1          0      )

 cart.    s(20) = (  0.0000000 -1.0000000  0.0000000 )
                  (  0.0000000  0.0000000 -1.0000000 )
                  (  1.0000000  0.0000000  0.0000000 )


      isym = 21     120 deg rotation - cart. axis [1,1,1]        

 cryst.   s(21) = (     0          1          0      )
                  (     0          0          1      )
                  (     1          0          0      )

 cart.    s(21) = (  0.0000000  0.0000000  1.0000000 )
                  (  1.0000000  0.0000000  0.0000000 )
                  (  0.0000000  1.0000000  0.0000000 )


      isym = 22     120 deg rotation - cart. axis [-1,1,-1]      

 cryst.   s(22) = (     0         -1          0      )
                  (     0          0         -1      )
                  (     1          0          0      )

 cart.    s(22) = (  0.0000000  0.0000000  1.0000000 )
                  ( -1.0000000  0.0000000  0.0000000 )
                  (  0.0000000 -1.0000000  0.0000000 )


      isym = 23     120 deg rotation - cart. axis [1,-1,-1]      

 cryst.   s(23) = (     0         -1          0      )
                  (     0          0          1      )
                  (    -1          0          0      )

 cart.    s(23) = (  0.0000000  0.0000000 -1.0000000 )
                  ( -1.0000000  0.0000000  0.0000000 )
                  (  0.0000000  1.0000000  0.0000000 )


      isym = 24     120 deg rotation - cart. axis [-1,-1,1]      

 cryst.   s(24) = (     0          1          0      )
                  (     0          0         -1      )
                  (    -1          0          0      )

 cart.    s(24) = (  0.0000000  0.0000000 -1.0000000 )
                  (  1.0000000  0.0000000  0.0000000 )
                  (  0.0000000 -1.0000000  0.0000000 )


      isym = 25     inversion                                    

 cryst.   s(25) = (    -1          0          0      )
                  (     0         -1          0      )
                  (     0          0         -1      )

 cart.    s(25) = ( -1.0000000  0.0000000  0.0000000 )
                  (  0.0000000 -1.0000000  0.0000000 )
                  (  0.0000000  0.0000000 -1.0000000 )


      isym = 26     inv. 180 deg rotation - cart. axis [0,0,1]   

 cryst.   s(26) = (     1          0          0      )
                  (     0          1          0      )
                  (     0          0         -1      )

 cart.    s(26) = (  1.0000000  0.0000000  0.0000000 )
                  (  0.0000000  1.0000000  0.0000000 )
                  (  0.0000000  0.0000000 -1.0000000 )


      isym = 27     inv. 180 deg rotation - cart. axis [0,1,0]   

 cryst.   s(27) = (     1          0          0      )
                  (     0         -1          0      )
                  (     0          0          1      )

 cart.    s(27) = (  1.0000000  0.0000000  0.0000000 )
                  (  0.0000000 -1.0000000  0.0000000 )
                  (  0.0000000  0.0000000  1.0000000 )


      isym = 28     inv. 180 deg rotation - cart. axis [1,0,0]   

 cryst.   s(28) = (    -1          0          0      )
                  (     0          1          0      )
                  (     0          0          1      )

 cart.    s(28) = ( -1.0000000  0.0000000  0.0000000 )
                  (  0.0000000  1.0000000  0.0000000 )
                  (  0.0000000  0.0000000  1.0000000 )


      isym = 29     inv. 180 deg rotation - cart. axis [1,1,0]   

 cryst.   s(29) = (     0         -1          0      )
                  (    -1          0          0      )
                  (     0          0          1      )

 cart.    s(29) = (  0.0000000 -1.0000000  0.0000000 )
                  ( -1.0000000  0.0000000  0.0000000 )
                  (  0.0000000  0.0000000  1.0000000 )


      isym = 30     inv. 180 deg rotation - cart. axis [1,-1,0]  

 cryst.   s(30) = (     0          1          0      )
                  (     1          0          0      )
                  (     0          0          1      )

 cart.    s(30) = (  0.0000000  1.0000000  0.0000000 )
                  (  1.0000000  0.0000000  0.0000000 )
                  (  0.0000000  0.0000000  1.0000000 )


      isym = 31     inv.  90 deg rotation - cart. axis [0,0,-1]  

 cryst.   s(31) = (     0          1          0      )
                  (    -1          0          0      )
                  (     0          0         -1      )

 cart.    s(31) = (  0.0000000 -1.0000000  0.0000000 )
                  (  1.0000000  0.0000000  0.0000000 )
                  (  0.0000000  0.0000000 -1.0000000 )


      isym = 32     inv.  90 deg rotation - cart. axis [0,0,1]   

 cryst.   s(32) = (     0         -1          0      )
                  (     1          0          0      )
                  (     0          0         -1      )

 cart.    s(32) = (  0.0000000  1.0000000  0.0000000 )
                  ( -1.0000000  0.0000000  0.0000000 )
                  (  0.0000000  0.0000000 -1.0000000 )


      isym = 33     inv. 180 deg rotation - cart. axis [1,0,1]   

 cryst.   s(33) = (     0          0         -1      )
                  (     0          1          0      )
                  (    -1          0          0      )

 cart.    s(33) = (  0.0000000  0.0000000 -1.0000000 )
                  (  0.0000000  1.0000000  0.0000000 )
                  ( -1.0000000  0.0000000  0.0000000 )


      isym = 34     inv. 180 deg rotation - cart. axis [-1,0,1]  

 cryst.   s(34) = (     0          0          1      )
                  (     0          1          0      )
                  (     1          0          0      )

 cart.    s(34) = (  0.0000000  0.0000000  1.0000000 )
                  (  0.0000000  1.0000000  0.0000000 )
                  (  1.0000000  0.0000000  0.0000000 )


      isym = 35     inv.  90 deg rotation - cart. axis [0,1,0]   

 cryst.   s(35) = (     0          0          1      )
                  (     0         -1          0      )
                  (    -1          0          0      )

 cart.    s(35) = (  0.0000000  0.0000000 -1.0000000 )
                  (  0.0000000 -1.0000000  0.0000000 )
                  (  1.0000000  0.0000000  0.0000000 )


      isym = 36     inv.  90 deg rotation - cart. axis [0,-1,0]  

 cryst.   s(36) = (     0          0         -1      )
                  (     0         -1          0      )
                  (     1          0          0      )

 cart.    s(36) = (  0.0000000  0.0000000  1.0000000 )
                  (  0.0000000 -1.0000000  0.0000000 )
                  ( -1.0000000  0.0000000  0.0000000 )


      isym = 37     inv. 180 deg rotation - cart. axis [0,1,1]   

 cryst.   s(37) = (     1          0          0      )
                  (     0          0         -1      )
                  (     0         -1          0      )

 cart.    s(37) = (  1.0000000  0.0000000  0.0000000 )
                  (  0.0000000  0.0000000 -1.0000000 )
                  (  0.0000000 -1.0000000  0.0000000 )


      isym = 38     inv. 180 deg rotation - cart. axis [0,1,-1]  

 cryst.   s(38) = (     1          0          0      )
                  (     0          0          1      )
                  (     0          1          0      )

 cart.    s(38) = (  1.0000000  0.0000000  0.0000000 )
                  (  0.0000000  0.0000000  1.0000000 )
                  (  0.0000000  1.0000000  0.0000000 )


      isym = 39     inv.  90 deg rotation - cart. axis [-1,0,0]  

 cryst.   s(39) = (    -1          0          0      )
                  (     0          0          1      )
                  (     0         -1          0      )

 cart.    s(39) = ( -1.0000000  0.0000000  0.0000000 )
                  (  0.0000000  0.0000000 -1.0000000 )
                  (  0.0000000  1.0000000  0.0000000 )


      isym = 40     inv.  90 deg rotation - cart. axis [1,0,0]   

 cryst.   s(40) = (    -1          0          0      )
                  (     0          0         -1      )
                  (     0          1          0      )

 cart.    s(40) = ( -1.0000000  0.0000000  0.0000000 )
                  (  0.0000000  0.0000000  1.0000000 )
                  (  0.0000000 -1.0000000  0.0000000 )


      isym = 41     inv. 120 deg rotation - cart. axis [-1,-1,-1]

 cryst.   s(41) = (     0          0         -1      )
                  (    -1          0          0      )
                  (     0         -1          0      )

 cart.    s(41) = (  0.0000000 -1.0000000  0.0000000 )
                  (  0.0000000  0.0000000 -1.0000000 )
                  ( -1.0000000  0.0000000  0.0000000 )


      isym = 42     inv. 120 deg rotation - cart. axis [-1,1,1]  

 cryst.   s(42) = (     0          0          1      )
                  (     1          0          0      )
                  (     0         -1          0      )

 cart.    s(42) = (  0.0000000  1.0000000  0.0000000 )
                  (  0.0000000  0.0000000 -1.0000000 )
                  (  1.0000000  0.0000000  0.0000000 )


      isym = 43     inv. 120 deg rotation - cart. axis [1,1,-1]  

 cryst.   s(43) = (     0          0          1      )
                  (    -1          0          0      )
                  (     0          1          0      )

 cart.    s(43) = (  0.0000000 -1.0000000  0.0000000 )
                  (  0.0000000  0.0000000  1.0000000 )
                  (  1.0000000  0.0000000  0.0000000 )


      isym = 44     inv. 120 deg rotation - cart. axis [1,-1,1]  

 cryst.   s(44) = (     0          0         -1      )
                  (     1          0          0      )
                  (     0          1          0      )

 cart.    s(44) = (  0.0000000  1.0000000  0.0000000 )
                  (  0.0000000  0.0000000  1.0000000 )
                  ( -1.0000000  0.0000000  0.0000000 )


      isym = 45     inv. 120 deg rotation - cart. axis [1,1,1]   

 cryst.   s(45) = (     0         -1          0      )
                  (     0          0         -1      )
                  (    -1          0          0      )

 cart.    s(45) = (  0.0000000  0.0000000 -1.0000000 )
                  ( -1.0000000  0.0000000  0.0000000 )
                  (  0.0000000 -1.0000000  0.0000000 )


      isym = 46     inv. 120 deg rotation - cart. axis [-1,1,-1] 

 cryst.   s(46) = (     0          1          0      )
                  (     0          0          1      )
                  (    -1          0          0      )

 cart.    s(46) = (  0.0000000  0.0000000 -1.0000000 )
                  (  1.0000000  0.0000000  0.0000000 )
                  (  0.0000000  1.0000000  0.0000000 )


      isym = 47     inv. 120 deg rotation - cart. axis [1,-1,-1] 

 cryst.   s(47) = (     0          1          0      )
                  (     0          0         -1      )
                  (     1          0          0      )

 cart.    s(47) = (  0.0000000  0.0000000  1.0000000 )
                  (  1.0000000  0.0000000  0.0000000 )
                  (  0.0000000 -1.0000000  0.0000000 )


      isym = 48     inv. 120 deg rotation - cart. axis [-1,-1,1] 

 cryst.   s(48) = (     0         -1          0      )
                  (     0          0          1      )
                  (     1          0          0      )

 cart.    s(48) = (  0.0000000  0.0000000  1.0000000 )
                  ( -1.0000000  0.0000000  0.0000000 )
                  (  0.0000000  1.0000000  0.0000000 )


     point group O_h (m-3m) 
     there are 10 classes
     the character table:

       E     8C3   6C2'  6C4   3C2   i     6S4   8S6   3s_h  6s_d 
A_1g   1.00  1.00  1.00  1.00  1.00  1.00  1.00  1.00  1.00  1.00
A_2g   1.00  1.00 -1.00 -1.00  1.00  1.00 -1.00  1.00  1.00 -1.00
E_g    2.00 -1.00  0.00  0.00  2.00  2.00  0.00 -1.00  2.00  0.00
T_1g   3.00  0.00 -1.00  1.00 -1.00  3.00  1.00  0.00 -1.00 -1.00
T_2g   3.00  0.00  1.00 -1.00 -1.00  3.00 -1.00  0.00 -1.00  1.00
A_1u   1.00  1.00  1.00  1.00  1.00 -1.00 -1.00 -1.00 -1.00 -1.00
A_2u   1.00  1.00 -1.00 -1.00  1.00 -1.00  1.00 -1.00 -1.00  1.00
E_u    2.00 -1.00  0.00  0.00  2.00 -2.00  0.00  1.00 -2.00  0.00
T_1u   3.00  0.00 -1.00  1.00 -1.00 -3.00 -1.00  0.00  1.00  1.00
T_2u   3.00  0.00  1.00 -1.00 -1.00 -3.00  1.00  0.00  1.00 -1.00

     the symmetry operations in each class:
     E        1
     3C2      2    4    3
     6C2'     5    6   14   13   10    9
     6C4      7    8   15   16   12   11
     8C3     17   19   20   18   24   21   22   23
     i       25
     3s_h    26   28   27
     6s_d    29   30   38   37   34   33
     6S4     31   32   39   40   36   35
     8S6     41   43   44   42   48   45   46   47

   Cartesian axes

     site n.     atom                  positions (alat units)
         1           Fe1 tau(   1) = (   0.0000000   0.0000000   0.0000000  )
         2           Fe  tau(   2) = (   0.5000000   0.5000000   0.5000000  )

   Crystallographic axes

     site n.     atom                  positions (cryst. coord.)
         1           Fe1 tau(   1) = (  0.0000000  0.0000000  0.0000000  )
         2           Fe  tau(   2) = (  0.5000000  0.5000000  0.5000000  )

     number of k points=    70  Methfessel-Paxton smearing, width (Ry)=  0.0100
                       cart. coord. in units 2pi/alat
        k(    1) = (   0.0000000   0.0000000   0.0000000), wk =   0.0019531
        k(    2) = (   0.0000000   0.0000000   0.1250000), wk =   0.0117188
        k(    3) = (   0.0000000   0.0000000   0.2500000), wk =   0.0117188
        k(    4) = (   0.0000000   0.0000000   0.3750000), wk =   0.0117188
        k(    5) = (   0.0000000   0.0000000  -0.5000000), wk =   0.0058594
        k(    6) = (   0.0000000   0.1250000   0.1250000), wk =   0.0234375
        k(    7) = (   0.0000000   0.1250000   0.2500000), wk =   0.0468750
        k(    8) = (   0.0000000   0.1250000   0.3750000), wk =   0.0468750
        k(    9) = (   0.0000000   0.1250000  -0.5000000), wk =   0.0234375
        k(   10) = (   0.0000000   0.2500000   0.2500000), wk =   0.0234375
        k(   11) = (   0.0000000   0.2500000   0.3750000), wk =   0.0468750
        k(   12) = (   0.0000000   0.2500000  -0.5000000), wk =   0.0234375
        k(   13) = (   0.0000000   0.3750000   0.3750000), wk =   0.0234375
        k(   14) = (   0.0000000   0.3750000  -0.5000000), wk =   0.0234375
        k(   15) = (   0.0000000  -0.5000000  -0.5000000), wk =   0.0058594
        k(   16) = (   0.1250000   0.1250000   0.1250000), wk =   0.0156250
        k(   17) = (   0.1250000   0.1250000   0.2500000), wk =   0.0468750
        k(   18) = (   0.1250000   0.1250000   0.3750000), wk =   0.0468750
        k(   19) = (   0.1250000   0.1250000  -0.5000000), wk =   0.0234375
        k(   20) = (   0.1250000   0.2500000   0.2500000), wk =   0.0468750
        k(   21) = (   0.1250000   0.2500000   0.3750000), wk =   0.0937500
        k(   22) = (   0.1250000   0.2500000  -0.5000000), wk =   0.0468750
        k(   23) = (   0.1250000   0.3750000   0.3750000), wk =   0.0468750
        k(   24) = (   0.1250000   0.3750000  -0.5000000), wk =   0.0468750
        k(   25) = (   0.1250000  -0.5000000  -0.5000000), wk =   0.0117188
        k(   26) = (   0.2500000   0.2500000   0.2500000), wk =   0.0156250
        k(   27) = (   0.2500000   0.2500000   0.3750000), wk =   0.0468750
        k(   28) = (   0.2500000   0.2500000  -0.5000000), wk =   0.0234375
        k(   29) = (   0.2500000   0.3750000   0.3750000), wk =   0.0468750
        k(   30) = (   0.2500000   0.3750000  -0.5000000), wk =   0.0468750
        k(   31) = (   0.2500000  -0.5000000  -0.5000000), wk =   0.0117188
        k(   32) = (   0.3750000   0.3750000   0.3750000), wk =   0.0156250
        k(   33) = (   0.3750000   0.3750000  -0.5000000), wk =   0.0234375
        k(   34) = (   0.3750000  -0.5000000  -0.5000000), wk =   0.0117188
        k(   35) = (  -0.5000000  -0.5000000  -0.5000000), wk =   0.0019531
        k(   36) = (   0.0000000   0.0000000   0.0000000), wk =   0.0019531
        k(   37) = (   0.0000000   0.0000000   0.1250000), wk =   0.0117188
        k(   38) = (   0.0000000   0.0000000   0.2500000), wk =   0.0117188
        k(   39) = (   0.0000000   0.0000000   0.3750000), wk =   0.0117188
        k(   40) = (   0.0000000   0.0000000  -0.5000000), wk =   0.0058594
        k(   41) = (   0.0000000   0.1250000   0.1250000), wk =   0.0234375
        k(   42) = (   0.0000000   0.1250000   0.2500000), wk =   0.0468750
        k(   43) = (   0.0000000   0.1250000   0.3750000), wk =   0.0468750
        k(   44) = (   0.0000000   0.1250000  -0.5000000), wk =   0.0234375
        k(   45) = (   0.0000000   0.2500000   0.2500000), wk =   0.0234375
        k(   46) = (   0.0000000   0.2500000   0.3750000), wk =   0.0468750
        k(   47) = (   0.0000000   0.2500000  -0.5000000), wk =   0.0234375
        k(   48) = (   0.0000000   0.3750000   0.3750000), wk =   0.0234375
        k(   49) = (   0.0000000   0.3750000  -0.5000000), wk =   0.0234375
        k(   50) = (   0.0000000  -0.5000000  -0.5000000), wk =   0.0058594
        k(   51) = (   0.1250000   0.1250000   0.1250000), wk =   0.0156250
        k(   52) = (   0.1250000   0.1250000   0.2500000), wk =   0.0468750
        k(   53) = (   0.1250000   0.1250000   0.3750000), wk =   0.0468750
        k(   54) = (   0.1250000   0.1250000  -0.5000000), wk =   0.0234375
        k(   55) = (   0.1250000   0.2500000   0.2500000), wk =   0.0468750
        k(   56) = (   0.1250000   0.2500000   0.3750000), wk =   0.0937500
        k(   57) = (   0.1250000   0.2500000  -0.5000000), wk =   0.0468750
        k(   58) = (   0.1250000   0.3750000   0.3750000), wk =   0.0468750
        k(   59) = (   0.1250000   0.3750000  -0.5000000), wk =   0.0468750
        k(   60) = (   0.1250000  -0.5000000  -0.5000000), wk =   0.0117188
        k(   61) = (   0.2500000   0.2500000   0.2500000), wk =   0.0156250
        k(   62) = (   0.2500000   0.2500000   0.3750000), wk =   0.0468750
        k(   63) = (   0.2500000   0.2500000  -0.5000000), wk =   0.0234375
        k(   64) = (   0.2500000   0.3750000   0.3750000), wk =   0.0468750
        k(   65) = (   0.2500000   0.3750000  -0.5000000), wk =   0.0468750
        k(   66) = (   0.2500000  -0.5000000  -0.5000000), wk =   0.0117188
        k(   67) = (   0.3750000   0.3750000   0.3750000), wk =   0.0156250
        k(   68) = (   0.3750000   0.3750000  -0.5000000), wk =   0.0234375
        k(   69) = (   0.3750000  -0.5000000  -0.5000000), wk =   0.0117188
        k(   70) = (  -0.5000000  -0.5000000  -0.5000000), wk =   0.0019531

                       cryst. coord.
        k(    1) = (   0.0000000   0.0000000   0.0000000), wk =   0.0019531
        k(    2) = (   0.0000000   0.0000000   0.1250000), wk =   0.0117188
        k(    3) = (   0.0000000   0.0000000   0.2500000), wk =   0.0117188
        k(    4) = (   0.0000000   0.0000000   0.3750000), wk =   0.0117188
        k(    5) = (   0.0000000   0.0000000  -0.5000000), wk =   0.0058594
        k(    6) = (   0.0000000   0.1250000   0.1250000), wk =   0.0234375
        k(    7) = (   0.0000000   0.1250000   0.2500000), wk =   0.0468750
        k(    8) = (   0.0000000   0.1250000   0.3750000), wk =   0.0468750
        k(    9) = (   0.0000000   0.1250000  -0.5000000), wk =   0.0234375
        k(   10) = (   0.0000000   0.2500000   0.2500000), wk =   0.0234375
        k(   11) = (   0.0000000   0.2500000   0.3750000), wk =   0.0468750
        k(   12) = (   0.0000000   0.2500000  -0.5000000), wk =   0.0234375
        k(   13) = (   0.0000000   0.3750000   0.3750000), wk =   0.0234375
        k(   14) = (   0.0000000   0.3750000  -0.5000000), wk =   0.0234375
        k(   15) = (   0.0000000  -0.5000000  -0.5000000), wk =   0.0058594
        k(   16) = (   0.1250000   0.1250000   0.1250000), wk =   0.0156250
        k(   17) = (   0.1250000   0.1250000   0.2500000), wk =   0.0468750
        k(   18) = (   0.1250000   0.1250000   0.3750000), wk =   0.0468750
        k(   19) = (   0.1250000   0.1250000  -0.5000000), wk =   0.0234375
        k(   20) = (   0.1250000   0.2500000   0.2500000), wk =   0.0468750
        k(   21) = (   0.1250000   0.2500000   0.3750000), wk =   0.0937500
        k(   22) = (   0.1250000   0.2500000  -0.5000000), wk =   0.0468750
        k(   23) = (   0.1250000   0.3750000   0.3750000), wk =   0.0468750
        k(   24) = (   0.1250000   0.3750000  -0.5000000), wk =   0.0468750
        k(   25) = (   0.1250000  -0.5000000  -0.5000000), wk =   0.0117188
        k(   26) = (   0.2500000   0.2500000   0.2500000), wk =   0.0156250
        k(   27) = (   0.2500000   0.2500000   0.3750000), wk =   0.0468750
        k(   28) = (   0.2500000   0.2500000  -0.5000000), wk =   0.0234375
        k(   29) = (   0.2500000   0.3750000   0.3750000), wk =   0.0468750
        k(   30) = (   0.2500000   0.3750000  -0.5000000), wk =   0.0468750
        k(   31) = (   0.2500000  -0.5000000  -0.5000000), wk =   0.0117188
        k(   32) = (   0.3750000   0.3750000   0.3750000), wk =   0.0156250
        k(   33) = (   0.3750000   0.3750000  -0.5000000), wk =   0.0234375
        k(   34) = (   0.3750000  -0.5000000  -0.5000000), wk =   0.0117188
        k(   35) = (  -0.5000000  -0.5000000  -0.5000000), wk =   0.0019531
        k(   36) = (   0.0000000   0.0000000   0.0000000), wk =   0.0019531
        k(   37) = (   0.0000000   0.0000000   0.1250000), wk =   0.0117188
        k(   38) = (   0.0000000   0.0000000   0.2500000), wk =   0.0117188
        k(   39) = (   0.0000000   0.0000000   0.3750000), wk =   0.0117188
        k(   40) = (   0.0000000   0.0000000  -0.5000000), wk =   0.0058594
        k(   41) = (   0.0000000   0.1250000   0.1250000), wk =   0.0234375
        k(   42) = (   0.0000000   0.1250000   0.2500000), wk =   0.0468750
        k(   43) = (   0.0000000   0.1250000   0.3750000), wk =   0.0468750
        k(   44) = (   0.0000000   0.1250000  -0.5000000), wk =   0.0234375
        k(   45) = (   0.0000000   0.2500000   0.2500000), wk =   0.0234375
        k(   46) = (   0.0000000   0.2500000   0.3750000), wk =   0.0468750
        k(   47) = (   0.0000000   0.2500000  -0.5000000), wk =   0.0234375
        k(   48) = (   0.0000000   0.3750000   0.3750000), wk =   0.0234375
        k(   49) = (   0.0000000   0.3750000  -0.5000000), wk =   0.0234375
        k(   50) = (   0.0000000  -0.5000000  -0.5000000), wk =   0.0058594
        k(   51) = (   0.1250000   0.1250000   0.1250000), wk =   0.0156250
        k(   52) = (   0.1250000   0.1250000   0.2500000), wk =   0.0468750
        k(   53) = (   0.1250000   0.1250000   0.3750000), wk =   0.0468750
        k(   54) = (   0.1250000   0.1250000  -0.5000000), wk =   0.0234375
        k(   55) = (   0.1250000   0.2500000   0.2500000), wk =   0.0468750
        k(   56) = (   0.1250000   0.2500000   0.3750000), wk =   0.0937500
        k(   57) = (   0.1250000   0.2500000  -0.5000000), wk =   0.0468750
        k(   58) = (   0.1250000   0.3750000   0.3750000), wk =   0.0468750
        k(   59) = (   0.1250000   0.3750000  -0.5000000), wk =   0.0468750
        k(   60) = (   0.1250000  -0.5000000  -0.5000000), wk =   0.0117188
        k(   61) = (   0.2500000   0.2500000   0.2500000), wk =   0.0156250
        k(   62) = (   0.2500000   0.2500000   0.3750000), wk =   0.0468750
        k(   63) = (   0.2500000   0.2500000  -0.5000000), wk =   0.0234375
        k(   64) = (   0.2500000   0.3750000   0.3750000), wk =   0.0468750
        k(   65) = (   0.2500000   0.3750000  -0.5000000), wk =   0.0468750
        k(   66) = (   0.2500000  -0.5000000  -0.5000000), wk =   0.0117188
        k(   67) = (   0.3750000   0.3750000   0.3750000), wk =   0.0156250
        k(   68) = (   0.3750000   0.3750000  -0.5000000), wk =   0.0234375
        k(   69) = (   0.3750000  -0.5000000  -0.5000000), wk =   0.0117188
        k(   70) = (  -0.5000000  -0.5000000  -0.5000000), wk =   0.0019531

     Dense  grid:    18325 G-vectors     FFT dimensions: (  36,  36,  36)

     Smooth grid:     3575 G-vectors     FFT dimensions: (  20,  20,  20)

     Largest allocated arrays     est. size (Mb)     dimensions
        Kohn-Sham Wavefunctions         0.03 Mb     (     118,   14)
        Atomic Hubbard wavefuncts       0.02 Mb     (     118,   10)
        NL pseudopotentials             0.06 Mb     (     118,   36)
        Each V/rho on FFT grid          0.36 Mb     (   11664,   2)
        Each G-vector array             0.03 Mb     (    4581)
        G-vector shells                 0.00 Mb     (     222)
     Largest temporary arrays     est. size (Mb)     dimensions
        Auxiliary wavefunctions         0.10 Mb     (     118,   56)
        Each subspace H/S matrix        0.05 Mb     (      56,   56)
        Each <psi_i|beta_j> matrix      0.01 Mb     (      36,   14)
        Arrays for rho mixing           1.42 Mb     (   11664,    8)

     The initial density is read from file :
     ./temp/fe.save/charge-density.dat

 --- in v_hubbard ---
Hubbard energy    0.0277
 -------
     Number of +U iterations with fixed ns =  0
     Starting occupations:
 --- enter write_ns ---
 LDA+U parameters:
U( 1)     =  0.00000000
alpha( 1) =  0.05000000
U( 2)     =  0.00000000
alpha( 2) =  0.00000000
atom    1   Tr[ns(na)] (up, down, total) =   4.87792  2.65575  7.53367
   spin  1
    eigenvalues: 
  0.968  0.968  0.968  0.987  0.987
    eigenvectors:
  0.000  0.000  0.000  0.659  0.341
  0.071  0.330  0.599  0.000  0.000
  0.352  0.286  0.361  0.000  0.000
  0.000  0.000  0.000  0.341  0.659
  0.577  0.384  0.039  0.000  0.000
    occupations:
  0.987  0.000  0.000  0.000  0.000
  0.000  0.968  0.000  0.000  0.000
  0.000  0.000  0.968  0.000  0.000
  0.000  0.000  0.000  0.987  0.000
  0.000  0.000  0.000  0.000  0.968
   spin  2
    eigenvalues: 
  0.441  0.441  0.591  0.591  0.591
    eigenvectors:
  0.687  0.313  0.000  0.000  0.000
  0.000  0.000  0.072  0.434  0.494
  0.000  0.000  0.325  0.230  0.445
  0.313  0.687  0.000  0.000  0.000
  0.000  0.000  0.603  0.336  0.061
    occupations:
  0.441  0.000  0.000  0.000  0.000
  0.000  0.591  0.000  0.000  0.000
  0.000  0.000  0.591  0.000  0.000
  0.000  0.000  0.000  0.441  0.000
  0.000  0.000  0.000  0.000  0.591
atomic mag. moment =     2.222170
atom    2   Tr[ns(na)] (up, down, total) =   4.87791  2.65574  7.53365
   spin  1
    eigenvalues: 
  0.968  0.968  0.968  0.987  0.987
    eigenvectors:
  0.000  0.000  0.000  0.600  0.400
  0.071  0.294  0.635  0.000  0.000
  0.358  0.309  0.334  0.000  0.000
  0.000  0.000  0.000  0.400  0.600
  0.571  0.397  0.031  0.000  0.000
    occupations:
  0.987  0.000  0.000  0.000  0.000
  0.000  0.968  0.000  0.000  0.000
  0.000  0.000  0.968  0.000  0.000
  0.000  0.000  0.000  0.987  0.000
  0.000  0.000  0.000  0.000  0.968
   spin  2
    eigenvalues: 
  0.441  0.441  0.591  0.591  0.591
    eigenvectors:
  0.521  0.479  0.000  0.000  0.000
  0.000  0.000  0.057  0.282  0.662
  0.000  0.000  0.305  0.378  0.317
  0.479  0.521  0.000  0.000  0.000
  0.000  0.000  0.638  0.340  0.022
    occupations:
  0.441  0.000  0.000  0.000  0.000
  0.000  0.591  0.000  0.000  0.000
  0.000  0.000  0.591  0.000  0.000
  0.000  0.000  0.000  0.441  0.000
  0.000  0.000  0.000  0.000  0.591
atomic mag. moment =     2.222168
N of occupied +U levels =   15.067320
 --- exit write_ns ---
 Atomic wfc used for LDA+U Projector are NOT orthogonalized
     Starting wfc from file

     total cpu time spent up to now is        0.7 secs

     per-process dynamical memory:     9.7 Mb

     Self-consistent Calculation

     iteration #  1     ecut=    30.00 Ry     beta=0.70
     Davidson diagonalization with overlap
     c_bands:  2 eigenvalues not converged
     ethr =  1.49E-10,  avg # of iterations =  5.5
 --- enter write_ns ---
 LDA+U parameters:
U( 1)     =  0.00000000
alpha( 1) =  0.05000000
U( 2)     =  0.00000000
alpha( 2) =  0.00000000
atom    1   Tr[ns(na)] (up, down, total) =   4.87553  2.62224  7.49777
   spin  1
    eigenvalues: 
  0.967  0.967  0.967  0.987  0.987
    eigenvectors:
  0.000  0.000  0.000  0.403  0.597
  0.071  0.473  0.456  0.000  0.000
  0.333  0.200  0.466  0.000  0.000
  0.000  0.000  0.000  0.597  0.403
  0.596  0.327  0.077  0.000  0.000
    occupations:
  0.987  0.000  0.000  0.000  0.000
  0.000  0.967  0.000  0.000  0.000
  0.000  0.000  0.967  0.000  0.000
  0.000  0.000  0.000  0.987  0.000
  0.000  0.000  0.000  0.000  0.967
   spin  2
    eigenvalues: 
  0.435  0.435  0.584  0.584  0.584
    eigenvectors:
  0.618  0.382  0.000  0.000  0.000
  0.000  0.000  0.074  0.567  0.359
  0.000  0.000  0.333  0.137  0.529
  0.382  0.618  0.000  0.000  0.000
  0.000  0.000  0.593  0.296  0.112
    occupations:
  0.435  0.000  0.000  0.000  0.000
  0.000  0.584  0.000  0.000  0.000
  0.000  0.000  0.584  0.000  0.000
  0.000  0.000  0.000  0.435  0.000
  0.000  0.000  0.000  0.000  0.584
atomic mag. moment =     2.253296
atom    2   Tr[ns(na)] (up, down, total) =   4.87914  2.68306  7.56219
   spin  1
    eigenvalues: 
  0.968  0.968  0.968  0.987  0.987
    eigenvectors:
  0.000  0.000  0.000  0.432  0.568
  0.065  0.294  0.641  0.000  0.000
  0.334  0.335  0.332  0.000  0.000
  0.000  0.000  0.000  0.568  0.432
  0.602  0.371  0.028  0.000  0.000
    occupations:
  0.987  0.000  0.000  0.000  0.000
  0.000  0.968  0.000  0.000  0.000
  0.000  0.000  0.968  0.000  0.000
  0.000  0.000  0.000  0.987  0.000
  0.000  0.000  0.000  0.000  0.968
   spin  2
    eigenvalues: 
  0.447  0.447  0.596  0.596  0.596
    eigenvectors:
  0.587  0.413  0.000  0.000  0.000
  0.000  0.000  0.071  0.387  0.542
  0.000  0.000  0.349  0.248  0.403
  0.413  0.587  0.000  0.000  0.000
  0.000  0.000  0.580  0.365  0.055
    occupations:
  0.447  0.000  0.000  0.000  0.000
  0.000  0.596  0.000  0.000  0.000
  0.000  0.000  0.596  0.000  0.000
  0.000  0.000  0.000  0.447  0.000
  0.000  0.000  0.000  0.000  0.596
atomic mag. moment =     2.196081
N of occupied +U levels =   15.059966
 --- exit write_ns ---
 --- in v_hubbard ---
Hubbard energy    0.0276
 -------
 
     Magnetic moment per site:
     atom:    1    charge:    6.4616    magn:    2.5087    constr:    0.0000
     atom:    2    charge:    6.5015    magn:    2.4760    constr:    0.0000

     total cpu time spent up to now is        2.0 secs

     total energy              =    -111.57542699 Ry
     Harris-Foulkes estimate   =    -111.57605840 Ry
     estimated scf accuracy    <       0.00079215 Ry

     total magnetization       =     4.84 Bohr mag/cell
     absolute magnetization    =     5.17 Bohr mag/cell

     iteration #  2     ecut=    30.00 Ry     beta=0.70
     Davidson diagonalization with overlap
     ethr =  4.95E-06,  avg # of iterations =  2.9
 --- enter write_ns ---
 LDA+U parameters:
U( 1)     =  0.00000000
alpha( 1) =  0.05000000
U( 2)     =  0.00000000
alpha( 2) =  0.00000000
atom    1   Tr[ns(na)] (up, down, total) =   4.89842  2.85721  7.75563
   spin  1
    eigenvalues: 
  0.972  0.972  0.972  0.992  0.992
    eigenvectors:
  0.000  0.000  0.000  0.628  0.372
  0.069  0.404  0.527  0.000  0.000
  0.333  0.250  0.417  0.000  0.000
  0.000  0.000  0.000  0.372  0.628
  0.598  0.346  0.056  0.000  0.000
    occupations:
  0.992  0.000  0.000  0.000  0.000
  0.000  0.972  0.000  0.000  0.000
  0.000  0.000  0.972  0.000  0.000
  0.000  0.000  0.000  0.992  0.000
  0.000  0.000  0.000  0.000  0.972
   spin  2
    eigenvalues: 
  0.476  0.476  0.635  0.635  0.635
    eigenvectors:
  0.553  0.447  0.000  0.000  0.000
  0.000  0.000  0.074  0.559  0.367
  0.000  0.000  0.353  0.134  0.514
  0.447  0.553  0.000  0.000  0.000
  0.000  0.000  0.574  0.307  0.119
    occupations:
  0.476  0.000  0.000  0.000  0.000
  0.000  0.635  0.000  0.000  0.000
  0.000  0.000  0.635  0.000  0.000
  0.000  0.000  0.000  0.476  0.000
  0.000  0.000  0.000  0.000  0.635
atomic mag. moment =     2.041212
atom    2   Tr[ns(na)] (up, down, total) =   4.84696  2.45289  7.29984
   spin  1
    eigenvalues: 
  0.960  0.960  0.960  0.983  0.983
    eigenvectors:
  0.000  0.000  0.000  0.658  0.342
  0.075  0.520  0.405  0.000  0.000
  0.334  0.164  0.502  0.000  0.000
  0.000  0.000  0.000  0.342  0.658
  0.591  0.315  0.094  0.000  0.000
    occupations:
  0.983  0.000  0.000  0.000  0.000
  0.000  0.960  0.000  0.000  0.000
  0.000  0.000  0.960  0.000  0.000
  0.000  0.000  0.000  0.983  0.000
  0.000  0.000  0.000  0.000  0.960
   spin  2
    eigenvalues: 
  0.407  0.407  0.546  0.546  0.546
    eigenvectors:
  0.592  0.408  0.000  0.000  0.000
  0.000  0.000  0.070  0.480  0.450
  0.000  0.000  0.331  0.198  0.471
  0.408  0.592  0.000  0.000  0.000
  0.000  0.000  0.599  0.322  0.079
    occupations:
  0.407  0.000  0.000  0.000  0.000
  0.000  0.546  0.000  0.000  0.000
  0.000  0.000  0.546  0.000  0.000
  0.000  0.000  0.000  0.407  0.000
  0.000  0.000  0.000  0.000  0.546
atomic mag. moment =     2.394072
N of occupied +U levels =   15.055476
 --- exit write_ns ---
 --- in v_hubbard ---
Hubbard energy    0.0277
 -------
 
     Magnetic moment per site:
     atom:    1    charge:    6.4794    magn:    2.4989    constr:    0.0000
     atom:    2    charge:    6.4839    magn:    2.4850    constr:    0.0000

     total cpu time spent up to now is        2.9 secs

     total energy              =    -111.57193146 Ry
     Harris-Foulkes estimate   =    -111.58018995 Ry
     estimated scf accuracy    <       0.06877164 Ry

     total magnetization       =     4.83 Bohr mag/cell
     absolute magnetization    =     5.16 Bohr mag/cell

     iteration #  3     ecut=    30.00 Ry     beta=0.70
     Davidson diagonalization with overlap
     ethr =  4.95E-06,  avg # of iterations =  2.7
 --- enter write_ns ---
 LDA+U parameters:
U( 1)     =  0.00000000
alpha( 1) =  0.05000000
U( 2)     =  0.00000000
alpha( 2) =  0.00000000
atom    1   Tr[ns(na)] (up, down, total) =   4.88012  2.63880  7.51892
   spin  1
    eigenvalues: 
  0.969  0.969  0.969  0.987  0.987
    eigenvectors:
  0.000  0.000  0.000  0.643  0.357
  0.064  0.380  0.556  0.000  0.000
  0.318  0.283  0.398  0.000  0.000
  0.000  0.000  0.000  0.357  0.643
  0.618  0.337  0.045  0.000  0.000
    occupations:
  0.987  0.000  0.000  0.000  0.000
  0.000  0.969  0.000  0.000  0.000
  0.000  0.000  0.969  0.000  0.000
  0.000  0.000  0.000  0.987  0.000
  0.000  0.000  0.000  0.000  0.969
   spin  2
    eigenvalues: 
  0.438  0.438  0.588  0.588  0.588
    eigenvectors:
  0.594  0.406  0.000  0.000  0.000
  0.000  0.000  0.072  0.525  0.403
  0.000  0.000  0.336  0.164  0.500
  0.406  0.594  0.000  0.000  0.000
  0.000  0.000  0.593  0.310  0.097
    occupations:
  0.438  0.000  0.000  0.000  0.000
  0.000  0.588  0.000  0.000  0.000
  0.000  0.000  0.588  0.000  0.000
  0.000  0.000  0.000  0.438  0.000
  0.000  0.000  0.000  0.000  0.588
atomic mag. moment =     2.241321
atom    2   Tr[ns(na)] (up, down, total) =   4.87866  2.66642  7.54508
   spin  1
    eigenvalues: 
  0.968  0.968  0.968  0.987  0.987
    eigenvectors:
  0.000  0.000  0.000  0.551  0.449
  0.081  0.581  0.338  0.000  0.000
  0.352  0.113  0.535  0.000  0.000
  0.000  0.000  0.000  0.449  0.551
  0.568  0.306  0.127  0.000  0.000
    occupations:
  0.987  0.000  0.000  0.000  0.000
  0.000  0.968  0.000  0.000  0.000
  0.000  0.000  0.968  0.000  0.000
  0.000  0.000  0.000  0.987  0.000
  0.000  0.000  0.000  0.000  0.968
   spin  2
    eigenvalues: 
  0.444  0.444  0.593  0.593  0.593
    eigenvectors:
  0.571  0.429  0.000  0.000  0.000
  0.000  0.000  0.072  0.398  0.530
  0.000  0.000  0.336  0.248  0.416
  0.429  0.571  0.000  0.000  0.000
  0.000  0.000  0.592  0.354  0.054
    occupations:
  0.444  0.000  0.000  0.000  0.000
  0.000  0.593  0.000  0.000  0.000
  0.000  0.000  0.593  0.000  0.000
  0.000  0.000  0.000  0.444  0.000
  0.000  0.000  0.000  0.000  0.593
atomic mag. moment =     2.212246
N of occupied +U levels =   15.063997
 --- exit write_ns ---
 --- in v_hubbard ---
Hubbard energy    0.0277
 -------
 
     Magnetic moment per site:
     atom:    1    charge:    6.4799    magn:    2.5015    constr:    0.0000
     atom:    2    charge:    6.4847    magn:    2.4848    constr:    0.0000

     total cpu time spent up to now is        3.7 secs

     total energy              =    -111.57601189 Ry
     Harris-Foulkes estimate   =    -111.57600423 Ry
     estimated scf accuracy    <       0.00004068 Ry

     total magnetization       =     4.84 Bohr mag/cell
     absolute magnetization    =     5.18 Bohr mag/cell

     iteration #  4     ecut=    30.00 Ry     beta=0.70
     Davidson diagonalization with overlap
     ethr =  2.54E-07,  avg # of iterations =  1.5
 --- enter write_ns ---
 LDA+U parameters:
U( 1)     =  0.00000000
alpha( 1) =  0.05000000
U( 2)     =  0.00000000
alpha( 2) =  0.00000000
atom    1   Tr[ns(na)] (up, down, total) =   4.87966  2.63883  7.51848
   spin  1
    eigenvalues: 
  0.968  0.968  0.968  0.987  0.987
    eigenvectors:
  0.000  0.000  0.000  0.576  0.424
  0.066  0.399  0.535  0.000  0.000
  0.329  0.259  0.412  0.000  0.000
  0.000  0.000  0.000  0.424  0.576
  0.604  0.342  0.054  0.000  0.000
    occupations:
  0.987  0.000  0.000  0.000  0.000
  0.000  0.968  0.000  0.000  0.000
  0.000  0.000  0.968  0.000  0.000
  0.000  0.000  0.000  0.987  0.000
  0.000  0.000  0.000  0.000  0.968
   spin  2
    eigenvalues: 
  0.438  0.438  0.588  0.588  0.588
    eigenvectors:
  0.649  0.351  0.000  0.000  0.000
  0.000  0.000  0.079  0.636  0.285
  0.000  0.000  0.331  0.093  0.575
  0.351  0.649  0.000  0.000  0.000
  0.000  0.000  0.590  0.271  0.139
    occupations:
  0.438  0.000  0.000  0.000  0.000
  0.000  0.588  0.000  0.000  0.000
  0.000  0.000  0.588  0.000  0.000
  0.000  0.000  0.000  0.438  0.000
  0.000  0.000  0.000  0.000  0.588
atomic mag. moment =     2.240828
atom    2   Tr[ns(na)] (up, down, total) =   4.87771  2.66520  7.54290
   spin  1
    eigenvalues: 
  0.968  0.968  0.968  0.987  0.987
    eigenvectors:
  0.000  0.000  0.000  0.411  0.589
  0.063  0.246  0.692  0.000  0.000
  0.346  0.365  0.289  0.000  0.000
  0.000  0.000  0.000  0.589  0.411
  0.591  0.389  0.020  0.000  0.000
    occupations:
  0.987  0.000  0.000  0.000  0.000
  0.000  0.968  0.000  0.000  0.000
  0.000  0.000  0.968  0.000  0.000
  0.000  0.000  0.000  0.987  0.000
  0.000  0.000  0.000  0.000  0.968
   spin  2
    eigenvalues: 
  0.444  0.444  0.592  0.592  0.592
    eigenvectors:
  0.765  0.235  0.000  0.000  0.000
  0.000  0.000  0.069  0.498  0.433
  0.000  0.000  0.321  0.193  0.487
  0.235  0.765  0.000  0.000  0.000
  0.000  0.000  0.610  0.309  0.081
    occupations:
  0.444  0.000  0.000  0.000  0.000
  0.000  0.592  0.000  0.000  0.000
  0.000  0.000  0.592  0.000  0.000
  0.000  0.000  0.000  0.444  0.000
  0.000  0.000  0.000  0.000  0.592
atomic mag. moment =     2.212506
N of occupied +U levels =   15.061387
 --- exit write_ns ---
 --- in v_hubbard ---
Hubbard energy    0.0276
 -------
 
     Magnetic moment per site:
     atom:    1    charge:    6.4792    magn:    2.5101    constr:    0.0000
     atom:    2    charge:    6.4853    magn:    2.4825    constr:    0.0000

     total cpu time spent up to now is        4.3 secs

     total energy              =    -111.57601480 Ry
     Harris-Foulkes estimate   =    -111.57601472 Ry
     estimated scf accuracy    <       0.00001776 Ry

     total magnetization       =     4.84 Bohr mag/cell
     absolute magnetization    =     5.17 Bohr mag/cell

     iteration #  5     ecut=    30.00 Ry     beta=0.70
     Davidson diagonalization with overlap
     ethr =  1.11E-07,  avg # of iterations =  1.0
 --- enter write_ns ---
 LDA+U parameters:
U( 1)     =  0.00000000
alpha( 1) =  0.05000000
U( 2)     =  0.00000000
alpha( 2) =  0.00000000
atom    1   Tr[ns(na)] (up, down, total) =   4.88135  2.63895  7.52031
   spin  1
    eigenvalues: 
  0.969  0.969  0.969  0.987  0.987
    eigenvectors:
  0.000  0.000  0.000  0.642  0.358
  0.072  0.459  0.469  0.000  0.000
  0.332  0.208  0.459  0.000  0.000
  0.000  0.000  0.000  0.358  0.642
  0.596  0.332  0.072  0.000  0.000
    occupations:
  0.987  0.000  0.000  0.000  0.000
  0.000  0.969  0.000  0.000  0.000
  0.000  0.000  0.969  0.000  0.000
  0.000  0.000  0.000  0.987  0.000
  0.000  0.000  0.000  0.000  0.969
   spin  2
    eigenvalues: 
  0.438  0.438  0.587  0.587  0.587
    eigenvectors:
  0.588  0.412  0.000  0.000  0.000
  0.000  0.000  0.074  0.589  0.338
  0.000  0.000  0.334  0.124  0.541
  0.412  0.588  0.000  0.000  0.000
  0.000  0.000  0.592  0.287  0.121
    occupations:
  0.438  0.000  0.000  0.000  0.000
  0.000  0.587  0.000  0.000  0.000
  0.000  0.000  0.587  0.000  0.000
  0.000  0.000  0.000  0.438  0.000
  0.000  0.000  0.000  0.000  0.587
atomic mag. moment =     2.242399
atom    2   Tr[ns(na)] (up, down, total) =   4.87782  2.66273  7.54055
   spin  1
    eigenvalues: 
  0.968  0.968  0.968  0.987  0.987
    eigenvectors:
  0.000  0.000  0.000  0.753  0.247
  0.077  0.485  0.438  0.000  0.000
  0.353  0.174  0.473  0.000  0.000
  0.000  0.000  0.000  0.247  0.753
  0.570  0.342  0.089  0.000  0.000
    occupations:
  0.987  0.000  0.000  0.000  0.000
  0.000  0.968  0.000  0.000  0.000
  0.000  0.000  0.968  0.000  0.000
  0.000  0.000  0.000  0.987  0.000
  0.000  0.000  0.000  0.000  0.968
   spin  2
    eigenvalues: 
  0.444  0.444  0.592  0.592  0.592
    eigenvectors:
  0.559  0.441  0.000  0.000  0.000
  0.000  0.000  0.066  0.409  0.525
  0.000  0.000  0.329  0.253  0.418
  0.441  0.559  0.000  0.000  0.000
  0.000  0.000  0.606  0.338  0.056
    occupations:
  0.444  0.000  0.000  0.000  0.000
  0.000  0.592  0.000  0.000  0.000
  0.000  0.000  0.592  0.000  0.000
  0.000  0.000  0.000  0.444  0.000
  0.000  0.000  0.000  0.000  0.592
atomic mag. moment =     2.215096
N of occupied +U levels =   15.060858
 --- exit write_ns ---
 --- in v_hubbard ---
Hubbard energy    0.0276
 -------
 
     Magnetic moment per site:
     atom:    1    charge:    6.4790    magn:    2.5136    constr:    0.0000
     atom:    2    charge:    6.4853    magn:    2.4829    constr:    0.0000

     total cpu time spent up to now is        4.9 secs

     total energy              =    -111.57601682 Ry
     Harris-Foulkes estimate   =    -111.57601666 Ry
     estimated scf accuracy    <       0.00000044 Ry

     total magnetization       =     4.85 Bohr mag/cell
     absolute magnetization    =     5.18 Bohr mag/cell

     iteration #  6     ecut=    30.00 Ry     beta=0.70
     Davidson diagonalization with overlap
     ethr =  2.74E-09,  avg # of iterations =  2.5
 --- enter write_ns ---
 LDA+U parameters:
U( 1)     =  0.00000000
alpha( 1) =  0.05000000
U( 2)     =  0.00000000
alpha( 2) =  0.00000000
atom    1   Tr[ns(na)] (up, down, total) =   4.88205  2.63818  7.52022
   spin  1
    eigenvalues: 
  0.969  0.969  0.969  0.987  0.987
    eigenvectors:
  0.000  0.000  0.000  0.591  0.409
  0.070  0.595  0.335  0.000  0.000
  0.328  0.128  0.545  0.000  0.000
  0.000  0.000  0.000  0.409  0.591
  0.602  0.278  0.120  0.000  0.000
    occupations:
  0.987  0.000  0.000  0.000  0.000
  0.000  0.969  0.000  0.000  0.000
  0.000  0.000  0.969  0.000  0.000
  0.000  0.000  0.000  0.987  0.000
  0.000  0.000  0.000  0.000  0.969
   spin  2
    eigenvalues: 
  0.438  0.438  0.587  0.587  0.587
    eigenvectors:
  0.697  0.303  0.000  0.000  0.000
  0.000  0.000  0.070  0.450  0.480
  0.000  0.000  0.337  0.214  0.449
  0.303  0.697  0.000  0.000  0.000
  0.000  0.000  0.593  0.336  0.071
    occupations:
  0.438  0.000  0.000  0.000  0.000
  0.000  0.587  0.000  0.000  0.000
  0.000  0.000  0.587  0.000  0.000
  0.000  0.000  0.000  0.438  0.000
  0.000  0.000  0.000  0.000  0.587
atomic mag. moment =     2.243870
atom    2   Tr[ns(na)] (up, down, total) =   4.87816  2.66204  7.54020
   spin  1
    eigenvalues: 
  0.968  0.968  0.968  0.987  0.987
    eigenvectors:
  0.000  0.000  0.000  0.653  0.347
  0.073  0.572  0.355  0.000  0.000
  0.331  0.137  0.533  0.000  0.000
  0.000  0.000  0.000  0.347  0.653
  0.596  0.292  0.112  0.000  0.000
    occupations:
  0.987  0.000  0.000  0.000  0.000
  0.000  0.968  0.000  0.000  0.000
  0.000  0.000  0.968  0.000  0.000
  0.000  0.000  0.000  0.987  0.000
  0.000  0.000  0.000  0.000  0.968
   spin  2
    eigenvalues: 
  0.444  0.444  0.591  0.591  0.591
    eigenvectors:
  0.414  0.586  0.000  0.000  0.000
  0.000  0.000  0.077  0.533  0.391
  0.000  0.000  0.352  0.146  0.502
  0.586  0.414  0.000  0.000  0.000
  0.000  0.000  0.572  0.321  0.107
    occupations:
  0.444  0.000  0.000  0.000  0.000
  0.000  0.591  0.000  0.000  0.000
  0.000  0.000  0.591  0.000  0.000
  0.000  0.000  0.000  0.444  0.000
  0.000  0.000  0.000  0.000  0.591
atomic mag. moment =     2.216114
N of occupied +U levels =   15.060417
 --- exit write_ns ---
 --- in v_hubbard ---
Hubbard energy    0.0276
 -------
 
     Magnetic moment per site:
     atom:    1    charge:    6.4790    magn:    2.5158    constr:    0.0000
     atom:    2    charge:    6.4852    magn:    2.4846    constr:    0.0000

     total cpu time spent up to now is        5.7 secs

     total energy              =    -111.57601708 Ry
     Harris-Foulkes estimate   =    -111.57601711 Ry
     estimated scf accuracy    <       0.00000007 Ry

     total magnetization       =     4.85 Bohr mag/cell
     absolute magnetization    =     5.18 Bohr mag/cell

     iteration #  7     ecut=    30.00 Ry     beta=0.70
     Davidson diagonalization with overlap
     ethr =  4.36E-10,  avg # of iterations =  2.6
 --- enter write_ns ---
 LDA+U parameters:
U( 1)     =  0.00000000
alpha( 1) =  0.05000000
U( 2)     =  0.00000000
alpha( 2) =  0.00000000
atom    1   Tr[ns(na)] (up, down, total) =   4.88257  2.63741  7.51998
   spin  1
    eigenvalues: 
  0.969  0.969  0.969  0.987  0.987
    eigenvectors:
  0.000  0.000  0.000  0.551  0.449
  0.075  0.396  0.529  0.000  0.000
  0.373  0.222  0.405  0.000  0.000
  0.000  0.000  0.000  0.449  0.551
  0.553  0.382  0.065  0.000  0.000
    occupations:
  0.987  0.000  0.000  0.000  0.000
  0.000  0.969  0.000  0.000  0.000
  0.000  0.000  0.969  0.000  0.000
  0.000  0.000  0.000  0.987  0.000
  0.000  0.000  0.000  0.000  0.969
   spin  2
    eigenvalues: 
  0.438  0.438  0.587  0.587  0.587
    eigenvectors:
  0.416  0.584  0.000  0.000  0.000
  0.000  0.000  0.074  0.439  0.487
  0.000  0.000  0.340  0.215  0.445
  0.584  0.416  0.000  0.000  0.000
  0.000  0.000  0.586  0.346  0.068
    occupations:
  0.438  0.000  0.000  0.000  0.000
  0.000  0.587  0.000  0.000  0.000
  0.000  0.000  0.587  0.000  0.000
  0.000  0.000  0.000  0.438  0.000
  0.000  0.000  0.000  0.000  0.587
atomic mag. moment =     2.245158
atom    2   Tr[ns(na)] (up, down, total) =   4.87864  2.66137  7.54001
   spin  1
    eigenvalues: 
  0.968  0.968  0.968  0.987  0.987
    eigenvectors:
  0.000  0.000  0.000  0.709  0.291
  0.073  0.653  0.274  0.000  0.000
  0.327  0.091  0.581  0.000  0.000
  0.000  0.000  0.000  0.291  0.709
  0.599  0.256  0.145  0.000  0.000
    occupations:
  0.987  0.000  0.000  0.000  0.000
  0.000  0.968  0.000  0.000  0.000
  0.000  0.000  0.968  0.000  0.000
  0.000  0.000  0.000  0.987  0.000
  0.000  0.000  0.000  0.000  0.968
   spin  2
    eigenvalues: 
  0.444  0.444  0.591  0.591  0.591
    eigenvectors:
  0.547  0.453  0.000  0.000  0.000
  0.000  0.000  0.072  0.428  0.500
  0.000  0.000  0.343  0.223  0.434
  0.453  0.547  0.000  0.000  0.000
  0.000  0.000  0.585  0.349  0.066
    occupations:
  0.444  0.000  0.000  0.000  0.000
  0.000  0.591  0.000  0.000  0.000
  0.000  0.000  0.591  0.000  0.000
  0.000  0.000  0.000  0.444  0.000
  0.000  0.000  0.000  0.000  0.591
atomic mag. moment =     2.217270
N of occupied +U levels =   15.059994
 --- exit write_ns ---
 --- in v_hubbard ---
Hubbard energy    0.0276
 -------
 
     Magnetic moment per site:
     atom:    1    charge:    6.4790    magn:    2.5160    constr:    0.0000
     atom:    2    charge:    6.4853    magn:    2.4852    constr:    0.0000

     total cpu time spent up to now is        6.4 secs

     total energy              =    -111.57601726 Ry
     Harris-Foulkes estimate   =    -111.57601725 Ry
     estimated scf accuracy    <       0.00000001 Ry

     total magnetization       =     4.85 Bohr mag/cell
     absolute magnetization    =     5.19 Bohr mag/cell

     iteration #  8     ecut=    30.00 Ry     beta=0.70
     Davidson diagonalization with overlap
     ethr =  8.82E-11,  avg # of iterations =  2.2
 --- enter write_ns ---
 LDA+U parameters:
U( 1)     =  0.00000000
alpha( 1) =  0.05000000
U( 2)     =  0.00000000
alpha( 2) =  0.00000000
atom    1   Tr[ns(na)] (up, down, total) =   4.88266  2.63732  7.51998
   spin  1
    eigenvalues: 
  0.969  0.969  0.969  0.987  0.987
    eigenvectors:
  0.000  0.000  0.000  0.485  0.515
  0.069  0.287  0.644  0.000  0.000
  0.364  0.310  0.325  0.000  0.000
  0.000  0.000  0.000  0.515  0.485
  0.566  0.402  0.031  0.000  0.000
    occupations:
  0.987  0.000  0.000  0.000  0.000
  0.000  0.969  0.000  0.000  0.000
  0.000  0.000  0.969  0.000  0.000
  0.000  0.000  0.000  0.987  0.000
  0.000  0.000  0.000  0.000  0.969
   spin  2
    eigenvalues: 
  0.438  0.438  0.587  0.587  0.587
    eigenvectors:
  0.695  0.305  0.000  0.000  0.000
  0.000  0.000  0.072  0.619  0.309
  0.000  0.000  0.318  0.115  0.567
  0.305  0.695  0.000  0.000  0.000
  0.000  0.000  0.610  0.266  0.124
    occupations:
  0.438  0.000  0.000  0.000  0.000
  0.000  0.587  0.000  0.000  0.000
  0.000  0.000  0.587  0.000  0.000
  0.000  0.000  0.000  0.438  0.000
  0.000  0.000  0.000  0.000  0.587
atomic mag. moment =     2.245335
atom    2   Tr[ns(na)] (up, down, total) =   4.87876  2.66114  7.53990
   spin  1
    eigenvalues: 
  0.969  0.969  0.969  0.987  0.987
    eigenvectors:
  0.000  0.000  0.000  0.658  0.342
  0.074  0.490  0.437  0.000  0.000
  0.346  0.179  0.475  0.000  0.000
  0.000  0.000  0.000  0.342  0.658
  0.580  0.332  0.088  0.000  0.000
    occupations:
  0.987  0.000  0.000  0.000  0.000
  0.000  0.969  0.000  0.000  0.000
  0.000  0.000  0.969  0.000  0.000
  0.000  0.000  0.000  0.987  0.000
  0.000  0.000  0.000  0.000  0.969
   spin  2
    eigenvalues: 
  0.444  0.444  0.591  0.591  0.591
    eigenvectors:
  0.541  0.459  0.000  0.000  0.000
  0.000  0.000  0.064  0.250  0.686
  0.000  0.000  0.349  0.357  0.294
  0.459  0.541  0.000  0.000  0.000
  0.000  0.000  0.587  0.392  0.021
    occupations:
  0.444  0.000  0.000  0.000  0.000
  0.000  0.591  0.000  0.000  0.000
  0.000  0.000  0.591  0.000  0.000
  0.000  0.000  0.000  0.444  0.000
  0.000  0.000  0.000  0.000  0.591
atomic mag. moment =     2.217617
N of occupied +U levels =   15.059881
 --- exit write_ns ---
 --- in v_hubbard ---
Hubbard energy    0.0276
 -------
 
     Magnetic moment per site:
     atom:    1    charge:    6.4790    magn:    2.5162    constr:    0.0000
     atom:    2    charge:    6.4853    magn:    2.4857    constr:    0.0000

     total cpu time spent up to now is        7.1 secs

     total energy              =    -111.57601727 Ry
     Harris-Foulkes estimate   =    -111.57601727 Ry
     estimated scf accuracy    <          7.3E-09 Ry

     total magnetization       =     4.85 Bohr mag/cell
     absolute magnetization    =     5.19 Bohr mag/cell

     iteration #  9     ecut=    30.00 Ry     beta=0.70
     Davidson diagonalization with overlap
     ethr =  4.57E-11,  avg # of iterations =  2.2
 --- enter write_ns ---
 LDA+U parameters:
U( 1)     =  0.00000000
alpha( 1) =  0.05000000
U( 2)     =  0.00000000
alpha( 2) =  0.00000000
atom    1   Tr[ns(na)] (up, down, total) =   4.88273  2.63720  7.51992
   spin  1
    eigenvalues: 
  0.969  0.969  0.969  0.987  0.987
    eigenvectors:
  0.000  0.000  0.000  0.634  0.366
  0.065  0.403  0.532  0.000  0.000
  0.323  0.262  0.415  0.000  0.000
  0.000  0.000  0.000  0.366  0.634
  0.612  0.335  0.053  0.000  0.000
    occupations:
  0.987  0.000  0.000  0.000  0.000
  0.000  0.969  0.000  0.000  0.000
  0.000  0.000  0.969  0.000  0.000
  0.000  0.000  0.000  0.987  0.000
  0.000  0.000  0.000  0.000  0.969
   spin  2
    eigenvalues: 
  0.438  0.438  0.587  0.587  0.587
    eigenvectors:
  0.524  0.476  0.000  0.000  0.000
  0.000  0.000  0.071  0.506  0.423
  0.000  0.000  0.331  0.180  0.489
  0.476  0.524  0.000  0.000  0.000
  0.000  0.000  0.598  0.314  0.088
    occupations:
  0.438  0.000  0.000  0.000  0.000
  0.000  0.587  0.000  0.000  0.000
  0.000  0.000  0.587  0.000  0.000
  0.000  0.000  0.000  0.438  0.000
  0.000  0.000  0.000  0.000  0.587
atomic mag. moment =     2.245531
atom    2   Tr[ns(na)] (up, down, total) =   4.87887  2.66100  7.53987
   spin  1
    eigenvalues: 
  0.969  0.969  0.969  0.987  0.987
    eigenvectors:
  0.000  0.000  0.000  0.690  0.310
  0.067  0.393  0.540  0.000  0.000
  0.329  0.263  0.409  0.000  0.000
  0.000  0.000  0.000  0.310  0.690
  0.604  0.344  0.052  0.000  0.000
    occupations:
  0.987  0.000  0.000  0.000  0.000
  0.000  0.969  0.000  0.000  0.000
  0.000  0.000  0.969  0.000  0.000
  0.000  0.000  0.000  0.987  0.000
  0.000  0.000  0.000  0.000  0.969
   spin  2
    eigenvalues: 
  0.444  0.444  0.591  0.591  0.591
    eigenvectors:
  0.583  0.417  0.000  0.000  0.000
  0.000  0.000  0.076  0.530  0.395
  0.000  0.000  0.346  0.152  0.502
  0.417  0.583  0.000  0.000  0.000
  0.000  0.000  0.579  0.319  0.103
    occupations:
  0.444  0.000  0.000  0.000  0.000
  0.000  0.591  0.000  0.000  0.000
  0.000  0.000  0.591  0.000  0.000
  0.000  0.000  0.000  0.444  0.000
  0.000  0.000  0.000  0.000  0.591
atomic mag. moment =     2.217871
N of occupied +U levels =   15.059795
 --- exit write_ns ---
 --- in v_hubbard ---
Hubbard energy    0.0276
 -------
 
     Magnetic moment per site:
     atom:    1    charge:    6.4790    magn:    2.5162    constr:    0.0000
     atom:    2    charge:    6.4853    magn:    2.4857    constr:    0.0000

     total cpu time spent up to now is        7.8 secs

     End of self-consistent calculation

 ------ SPIN UP ------------


          k = 0.0000 0.0000 0.0000 (   461 PWs)   bands (ev):

     4.7379   8.2268   8.2268  10.5406  10.5406  10.5406  11.7239  11.7239
    12.8103  12.8103  12.8103  22.6883  22.6883  22.6883

     occupation numbers 
     1.0000   1.0000   1.0000   1.0000   1.0000   1.0000   1.0000   1.0000
     0.9760   0.9760   0.9760   0.0000   0.0000   0.0000

          k = 0.0000 0.0000 0.1250 (   449 PWs)   bands (ev):

     5.0534   8.3554   8.3600  10.5421  10.5421  10.6240  11.5908  11.7760
    12.5718  12.5718  12.7204  20.7514  23.2604  23.2604

     occupation numbers 
     1.0000   1.0000   1.0000   1.0000   1.0000   1.0000   1.0000   1.0000
     1.0011   1.0011   1.0314   0.0000   0.0000   0.0000

          k = 0.0000 0.0000 0.2500 (   445 PWs)   bands (ev):

     5.9539   8.6713   8.7250  10.5714  10.5714  10.8611  11.2093  11.9253
    12.0212  12.0212  12.4659  17.6250  24.8002  24.8002

     occupation numbers 
     1.0000   1.0000   1.0000   1.0000   1.0000   1.0000   1.0000   1.0000
     1.0000   1.0000   1.0000   0.0000   0.0000   0.0000

          k = 0.0000 0.0000 0.3750 (   438 PWs)   bands (ev):

     7.2546   8.8698   9.2861  10.6348  10.6943  10.6943  11.2205  11.4328
    11.4328  12.0892  12.2181  14.8462  26.9936  26.9936

     occupation numbers 
     1.0000   1.0000   1.0000   1.0000   1.0000   1.0000   1.0000   1.0000
     1.0000   1.0000   1.0000   0.0000   0.0000   0.0000

          k = 0.0000 0.0000-0.5000 (   466 PWs)   bands (ev):

     8.4406   8.4583   9.9523   9.9618  10.9651  10.9651  10.9806  10.9806
    11.6385  11.6633  12.9769  13.0168  29.5980  29.5981

     occupation numbers 
     1.0000   1.0000   1.0000   1.0000   1.0000   1.0000   1.0000   1.0000
     1.0000   1.0000   0.1441   0.0185   0.0000   0.0000

          k = 0.0000 0.1250 0.1250 (   451 PWs)   bands (ev):

     5.3599   8.4663   8.5024  10.3846  10.5186  10.8610  11.5944  11.7376
    12.1683  12.3385  12.8469  20.8517  21.6454  23.7826

     occupation numbers 
     1.0000   1.0000   1.0000   1.0000   1.0000   1.0000   1.0000   1.0000
     1.0000   1.0000   0.8592   0.0000   0.0000   0.0000

          k = 0.0000 0.1250 0.2500 (   438 PWs)   bands (ev):

     6.2265   8.7436   8.8699  10.2920  10.4818  11.2084  11.3660  11.5614
    11.8313  11.8686  12.7543  17.9668  22.6468  25.2209

     occupation numbers 
     1.0000   1.0000   1.0000   1.0000   1.0000   1.0000   1.0000   1.0000
     1.0000   1.0000   1.0348   0.0000   0.0000   0.0000

          k = 0.0000 0.1250 0.3750 (   440 PWs)   bands (ev):

     7.4429   8.9176   9.3663  10.3372  10.3608  10.9860  11.1413  11.3920
    11.6199  12.1775  12.4617  15.1230  24.4083  27.3232

     occupation numbers 
     1.0000   1.0000   1.0000   1.0000   1.0000   1.0000   1.0000   1.0000
     1.0000   1.0000   1.0000   0.0000   0.0000   0.0000

          k = 0.0000 0.1250-0.5000 (   448 PWs)   bands (ev):

     8.5093   8.5182   9.9220   9.9283  10.5619  10.5658  11.1874  11.1970
    12.0514  12.0632  13.0779  13.1127  26.4694  26.4755

     occupation numbers 
     1.0000   1.0000   1.0000   1.0000   1.0000   1.0000   1.0000   1.0000
     1.0000   1.0000  -0.0354  -0.0288   0.0000   0.0000

          k = 0.0000 0.2500 0.2500 (   441 PWs)   bands (ev):

     6.9540   8.8118   9.3241  10.0217  10.4564  10.9183  11.5014  11.5616
    11.6921  11.7861  12.9362  17.9645  20.4925  26.4289

     occupation numbers 
     1.0000   1.0000   1.0000   1.0000   1.0000   1.0000   1.0000   1.0000
     1.0000   1.0000   0.3540   0.0000   0.0000   0.0000

          k = 0.0000 0.2500 0.3750 (   445 PWs)   bands (ev):

     7.8206   8.7459   9.8861   9.9192  10.3774  10.5836  11.3929  11.5647
    12.0545  12.1676  12.8607  15.6302  21.4179  25.6181

     occupation numbers 
     1.0000   1.0000   1.0000   1.0000   1.0000   1.0000   1.0000   1.0000
     1.0000   1.0000   0.7970   0.0000   0.0000   0.0000

          k = 0.0000 0.2500-0.5000 (   446 PWs)   bands (ev):

     8.4324   8.4390  10.0332  10.0337  10.3689  10.3761  11.5150  11.5166
    12.5768  12.5819  13.3281  13.3503  23.2908  23.2941

     occupation numbers 
     1.0000   1.0000   1.0000   1.0000   1.0000   1.0000   1.0000   1.0000
     1.0013   1.0016  -0.0001   0.0000   0.0000   0.0000

          k = 0.0000 0.3750 0.3750 (   442 PWs)   bands (ev):

     8.0636   8.4599   9.6758   9.9093  10.6488  11.5015  11.5300  11.8578
    11.9063  12.6320  13.0258  15.2796  20.0086  22.9115

     occupation numbers 
     1.0000   1.0000   1.0000   1.0000   1.0000   1.0000   1.0000   1.0000
     1.0000   1.0066   0.0017   0.0000   0.0000   0.0000

          k = 0.0000 0.3750-0.5000 (   436 PWs)   bands (ev):

     8.2216   8.2346   9.6667   9.6667  11.3002  11.3194  11.7120  11.7233
    12.9371  12.9384  13.5394  13.5481  20.8752  20.8759

     occupation numbers 
     1.0000   1.0000   1.0000   1.0000   1.0000   1.0000   1.0000   1.0000
     0.3487   0.3410   0.0000   0.0000   0.0000   0.0000

          k = 0.0000-0.5000-0.5000 (   428 PWs)   bands (ev):

     8.1290   8.1436   9.5374   9.5374  11.7627  11.7767  11.8794  11.9100
    13.0636  13.0636  13.5664  13.5664  19.8970  19.9003

     occupation numbers 
     1.0000   1.0000   1.0000   1.0000   1.0000   1.0000   1.0000   1.0000
    -0.0332  -0.0332   0.0000   0.0000   0.0000   0.0000

          k = 0.1250 0.1250 0.1250 (   446 PWs)   bands (ev):

     5.6597   8.6083   8.6083  10.3520  10.3520  11.1092  11.6604  11.6604
    11.6642  12.6104  12.6104  21.3486  21.3486  22.4045

     occupation numbers 
     1.0000   1.0000   1.0000   1.0000   1.0000   1.0000   1.0000   1.0000
     1.0000   1.0037   1.0037   0.0000   0.0000   0.0000

          k = 0.1250 0.1250 0.2500 (   438 PWs)   bands (ev):

     6.4997   8.9063   8.9287  10.2189  10.2627  11.0450  11.4577  11.5312
    11.8288  12.0846  12.6563  18.3415  22.6386  23.3152

     occupation numbers 
     1.0000   1.0000   1.0000   1.0000   1.0000   1.0000   1.0000   1.0000
     1.0000   1.0000   1.0115   0.0000   0.0000   0.0000

          k = 0.1250 0.1250 0.3750 (   443 PWs)   bands (ev):

     7.6488   9.0690   9.3346  10.1014  10.2918  10.6441  11.2499  11.5679
    11.9024  12.2504  12.4609  15.4758  24.3843  24.9518

     occupation numbers 
     1.0000   1.0000   1.0000   1.0000   1.0000   1.0000   1.0000   1.0000
     1.0000   1.0000   1.0000   0.0000   0.0000   0.0000

          k = 0.1250 0.1250-0.5000 (   448 PWs)   bands (ev):

     8.6310   8.6335   9.7791   9.7841  10.4939  10.4960  11.2542  11.2605
    12.1484  12.1660  13.3644  13.3877  26.3731  26.3831

     occupation numbers 
     1.0000   1.0000   1.0000   1.0000   1.0000   1.0000   1.0000   1.0000
     1.0000   1.0000   0.0000   0.0000   0.0000   0.0000

          k = 0.1250 0.2500 0.2500 (   435 PWs)   bands (ev):

     7.2260   8.9978   9.3614   9.9690  10.1809  10.4608  11.6024  11.7739
    11.8614  12.0862  12.6822  18.4966  20.5855  23.9944

     occupation numbers 
     1.0000   1.0000   1.0000   1.0000   1.0000   1.0000   1.0000   1.0000
     1.0000   1.0000   1.0189   0.0000   0.0000   0.0000

          k = 0.1250 0.2500 0.3750 (   441 PWs)   bands (ev):

     8.0673   8.9414   9.7580   9.8469  10.2259  10.3074  11.5508  11.5897
    11.9423  12.5951  12.7706  16.1571  21.5715  25.4447

     occupation numbers 
     1.0000   1.0000   1.0000   1.0000   1.0000   1.0000   1.0000   1.0000
     1.0000   1.0024   1.0289   0.0000   0.0000   0.0000

          k = 0.1250 0.2500-0.5000 (   440 PWs)   bands (ev):

     8.6288   8.6381   9.8155   9.8181  10.3880  10.3904  11.5346  11.5368
    12.2689  12.2883  13.9930  14.0019  23.4601  23.4639

     occupation numbers 
     1.0000   1.0000   1.0000   1.0000   1.0000   1.0000   1.0000   1.0000
     1.0000   1.0000   0.0000   0.0000   0.0000   0.0000

          k = 0.1250 0.3750 0.3750 (   445 PWs)   bands (ev):

     8.3035   8.6486   9.6401   9.8005  10.5623  10.9931  11.6322  11.7371
    11.8628  12.6196  13.4973  16.0678  20.0717  23.0781

     occupation numbers 
     1.0000   1.0000   1.0000   1.0000   1.0000   1.0000   1.0000   1.0000
     1.0000   1.0048   0.0000   0.0000   0.0000   0.0000

          k = 0.1250 0.3750-0.5000 (   440 PWs)   bands (ev):

     8.4268   8.4405   9.6216   9.6219  11.1288  11.1411  11.7295  11.7407
    12.2657  12.2817  14.6384  14.6400  20.9945  20.9948

     occupation numbers 
     1.0000   1.0000   1.0000   1.0000   1.0000   1.0000   1.0000   1.0000
     1.0000   1.0000   0.0000   0.0000   0.0000   0.0000

          k = 0.1250-0.5000-0.5000 (   444 PWs)   bands (ev):

     8.3340   8.3486   9.5140   9.5140  11.7883  11.8034  11.8841  11.9148
    11.9469  11.9469  14.9673  14.9673  19.9533  19.9565

     occupation numbers 
     1.0000   1.0000   1.0000   1.0000   1.0000   1.0000   1.0000   1.0000
     1.0000   1.0000   0.0000   0.0000   0.0000   0.0000

          k = 0.2500 0.2500 0.2500 (   443 PWs)   bands (ev):

     7.9379   9.4524   9.4524   9.8448   9.8448   9.8692  11.7335  11.7335
    12.1943  12.1943  12.8021  19.8229  19.8229  22.0459

     occupation numbers 
     1.0000   1.0000   1.0000   1.0000   1.0000   1.0000   1.0000   1.0000
     1.0000   1.0000   0.9925   0.0000   0.0000   0.0000

          k = 0.2500 0.2500 0.3750 (   445 PWs)   bands (ev):

     8.6495   9.2993   9.5491   9.7187   9.9186  10.0627  11.6778  11.8207
    11.8951  12.2546  13.6876  17.2372  21.6006  22.8342

     occupation numbers 
     1.0000   1.0000   1.0000   1.0000   1.0000   1.0000   1.0000   1.0000
     1.0000   1.0000   0.0000   0.0000   0.0000   0.0000

          k = 0.2500 0.2500-0.5000 (   442 PWs)   bands (ev):

     8.9694   8.9833   9.6257   9.6297  10.2492  10.2497  11.6664  11.6743
    12.0754  12.1000  15.0644  15.0656  23.6827  23.6865

     occupation numbers 
     1.0000   1.0000   1.0000   1.0000   1.0000   1.0000   1.0000   1.0000
     1.0000   1.0000   0.0000   0.0000   0.0000   0.0000

          k = 0.2500 0.3750 0.3750 (   438 PWs)   bands (ev):

     8.9360   9.0706   9.5710   9.6650  10.2057  10.2923  11.7973  11.8290
    11.8724  12.1456  14.7529  17.6883  20.2369  23.5512

     occupation numbers 
     1.0000   1.0000   1.0000   1.0000   1.0000   1.0000   1.0000   1.0000
     1.0000   1.0000   0.0000   0.0000   0.0000   0.0000

          k = 0.2500 0.3750-0.5000 (   442 PWs)   bands (ev):

     8.9305   8.9442   9.5610   9.5623  10.5641  10.5673  11.8025  11.8183
    11.9765  12.0024  16.1718  16.1730  21.4182  21.4183

     occupation numbers 
     1.0000   1.0000   1.0000   1.0000   1.0000   1.0000   1.0000   1.0000
     1.0000   1.0000   0.0000   0.0000   0.0000   0.0000

          k = 0.2500-0.5000-0.5000 (   436 PWs)   bands (ev):

     8.8631   8.8769   9.4796   9.4796  10.9117  10.9117  11.8477  11.8668
    11.8957  11.9265  16.8507  16.8507  20.1806  20.1840

     occupation numbers 
     1.0000   1.0000   1.0000   1.0000   1.0000   1.0000   1.0000   1.0000
     1.0000   1.0000   0.0000   0.0000   0.0000   0.0000

          k = 0.3750 0.3750 0.3750 (   450 PWs)   bands (ev):

     9.2226   9.5516   9.5516   9.7698   9.9342   9.9342  11.8762  11.8762
    11.9428  11.9428  16.1268  19.6782  19.6782  22.0063

     occupation numbers 
     1.0000   1.0000   1.0000   1.0000   1.0000   1.0000   1.0000   1.0000
     1.0000   1.0000   0.0000   0.0000   0.0000   0.0000

          k = 0.3750 0.3750-0.5000 (   452 PWs)   bands (ev):

     9.3016   9.3092   9.6606   9.6663  10.1151  10.1153  11.8752  11.8984
    11.9196  11.9478  17.7807  17.7826  21.9338  21.9396

     occupation numbers 
     1.0000   1.0000   1.0000   1.0000   1.0000   1.0000   1.0000   1.0000
     1.0000   1.0000   0.0000   0.0000   0.0000   0.0000

          k = 0.3750-0.5000-0.5000 (   440 PWs)   bands (ev):

     9.4531   9.4629   9.5177   9.5177  10.1745  10.1745  11.8972  11.9077
    11.9234  11.9385  18.9805  18.9805  20.7218  20.7266

     occupation numbers 
     1.0000   1.0000   1.0000   1.0000   1.0000   1.0000   1.0000   1.0000
     1.0000   1.0000   0.0000   0.0000   0.0000   0.0000

          k =-0.5000-0.5000-0.5000 (   432 PWs)   bands (ev):

     9.7212   9.7212   9.7212   9.7276   9.7276   9.7276  11.9125  11.9125
    11.9433  11.9433  21.3241  21.3241  21.3241  21.3349

     occupation numbers 
     1.0000   1.0000   1.0000   1.0000   1.0000   1.0000   1.0000   1.0000
     1.0000   1.0000   0.0000   0.0000   0.0000   0.0000

 ------ SPIN DOWN ----------


          k = 0.0000 0.0000 0.0000 (   461 PWs)   bands (ev):

     4.8111  10.3010  10.3010  12.9729  12.9729  12.9729  14.8907  14.8907
    15.5926  15.5926  15.5926  22.8959  22.8959  22.8959

     occupation numbers 
     1.0000   1.0000   1.0000   0.1615   0.1615   0.1615   0.0000   0.0000
     0.0000   0.0000   0.0000   0.0000   0.0000   0.0000

          k = 0.0000 0.0000 0.1250 (   449 PWs)   bands (ev):

     5.1283  10.3947  10.4604  12.9593  12.9593  13.0679  14.7065  14.9598
    15.2513  15.2513  15.4875  21.3032  23.5747  23.5747

     occupation numbers 
     1.0000   1.0000   1.0000   0.2263   0.2263  -0.0343   0.0000   0.0000
     0.0000   0.0000   0.0000   0.0000   0.0000   0.0000

          k = 0.0000 0.0000 0.2500 (   445 PWs)   bands (ev):

     6.0450  10.5168  10.9219  12.9528  12.9528  13.3385  14.1819  14.5282
    14.5282  15.1359  15.1904  18.6757  25.2973  25.2973

     occupation numbers 
     1.0000   1.0000   1.0000   0.2599   0.2599   0.0000   0.0000   0.0000
     0.0000   0.0000   0.0000   0.0000   0.0000   0.0000

          k = 0.0000 0.0000 0.3750 (   438 PWs)   bands (ev):

     7.4368  10.1818  11.6337  13.0432  13.0432  13.4030  13.7503  13.8240
    13.8240  14.7523  15.3636  16.6639  27.6189  27.6189

     occupation numbers 
     1.0000   1.0000   1.0000  -0.0207  -0.0207   0.0000   0.0000   0.0000
     0.0000   0.0000   0.0000   0.0000   0.0000   0.0000

          k = 0.0000 0.0000-0.5000 (   466 PWs)   bands (ev):

     8.9984   9.0221  12.4901  12.5164  13.3086  13.3086  13.3259  13.3259
    14.2405  14.2501  15.7144  15.7175  30.2711  30.2729

     occupation numbers 
     1.0000   1.0000   1.0001   1.0002  -0.0002  -0.0002  -0.0001  -0.0001
     0.0000   0.0000   0.0000   0.0000   0.0000   0.0000

          k = 0.0000 0.1250 0.1250 (   451 PWs)   bands (ev):

     5.4388  10.5416  10.5579  12.7728  12.9129  13.3318  14.7014  14.7491
    14.9078  14.9211  15.6351  21.5035  22.2904  24.1633

     occupation numbers 
     1.0000   1.0000   1.0000   1.0276   0.4962  -0.0001   0.0000   0.0000
     0.0000   0.0000   0.0000   0.0000   0.0000   0.0000

          k = 0.0000 0.1250 0.2500 (   438 PWs)   bands (ev):

     6.3325  10.6628  10.9766  12.6394  12.8187  13.7229  14.0043  14.2905
    14.3552  15.0658  15.5195  19.0569  23.4587  25.7314

     occupation numbers 
     1.0000   1.0000   1.0000   1.0078   0.9557   0.0000   0.0000   0.0000
     0.0000   0.0000   0.0000   0.0000   0.0000   0.0000

          k = 0.0000 0.1250 0.3750 (   440 PWs)   bands (ev):

     7.6767  10.3063  11.6012  12.6530  12.6827  13.3362  13.8582  13.8802
    14.1900  15.1682  15.3138  16.8838  25.2812  27.9387

     occupation numbers 
     1.0000   1.0000   1.0000   1.0107   1.0191   0.0000   0.0000   0.0000
     0.0000   0.0000   0.0000   0.0000   0.0000   0.0000

          k = 0.0000 0.1250-0.5000 (   448 PWs)   bands (ev):

     9.1691   9.1841  12.2609  12.2757  12.8708  12.8797  13.7030  13.7067
    14.6928  14.6953  15.7350  15.7375  27.2917  27.2936

     occupation numbers 
     1.0000   1.0000   1.0000   1.0000   0.7455   0.6963   0.0000   0.0000
     0.0000   0.0000   0.0000   0.0000   0.0000   0.0000

          k = 0.0000 0.2500 0.2500 (   441 PWs)   bands (ev):

     7.1438  10.7704  11.2669  12.3138  12.6116  13.2578  13.9792  14.2749
    14.5683  14.9763  15.7389  19.0551  21.7085  26.9775

     occupation numbers 
     1.0000   1.0000   1.0000   1.0000   1.0038  -0.0010   0.0000   0.0000
     0.0000   0.0000   0.0000   0.0000   0.0000   0.0000

          k = 0.0000 0.2500 0.3750 (   445 PWs)   bands (ev):

     8.3055  10.3717  11.8076  12.1720  12.4782  12.6470  14.0326  14.4311
    14.8238  15.1790  15.6445  17.1920  22.6229  26.4956

     occupation numbers 
     1.0000   1.0000   1.0000   1.0000   1.0000   1.0094   0.0000   0.0000
     0.0000   0.0000   0.0000   0.0000   0.0000   0.0000

          k = 0.0000 0.2500-0.5000 (   446 PWs)   bands (ev):

     9.4933   9.4983  12.2604  12.2724  12.2738  12.2776  14.2600  14.2636
    15.3069  15.3069  15.7346  15.7350  24.3524  24.3524

     occupation numbers 
     1.0000   1.0000   1.0000   1.0000   1.0000   1.0000   0.0000   0.0000
     0.0000   0.0000   0.0000   0.0000   0.0000   0.0000

          k = 0.0000 0.3750 0.3750 (   442 PWs)   bands (ev):

     9.0498  10.0822  11.8836  12.1227  12.4507  12.7016  14.3488  14.7071
    15.0867  15.3704  15.8434  16.6731  21.5334  24.0317

     occupation numbers 
     1.0000   1.0000   1.0000   1.0000   1.0000   1.0254   0.0000   0.0000
     0.0000   0.0000   0.0000   0.0000   0.0000   0.0000

          k = 0.0000 0.3750-0.5000 (   436 PWs)   bands (ev):

     9.6312   9.6500  11.8592  11.8602  12.9186  12.9261  14.6399  14.6449
    15.5061  15.5100  15.7357  15.7358  22.2677  22.2701

     occupation numbers 
     1.0000   1.0000   1.0000   1.0000   0.4607   0.4148   0.0000   0.0000
     0.0000   0.0000   0.0000   0.0000   0.0000   0.0000

          k = 0.0000-0.5000-0.5000 (   428 PWs)   bands (ev):

     9.6394   9.6614  11.7131  11.7131  13.5577  13.5577  14.7684  14.7732
    15.1411  15.1506  15.8874  15.8874  21.5087  21.5125

     occupation numbers 
     1.0000   1.0000   1.0000   1.0000   0.0000   0.0000   0.0000   0.0000
     0.0000   0.0000   0.0000   0.0000   0.0000   0.0000

          k = 0.1250 0.1250 0.1250 (   446 PWs)   bands (ev):

     5.7438  10.6711  10.6711  12.7203  12.7203  13.5973  14.0762  14.7929
    14.7929  15.3079  15.3079  22.0977  22.0977  23.0254

     occupation numbers 
     1.0000   1.0000   1.0000   1.0314   1.0314   0.0000   0.0000   0.0000
     0.0000   0.0000   0.0000   0.0000   0.0000   0.0000

          k = 0.1250 0.1250 0.2500 (   438 PWs)   bands (ev):

     6.6179  10.8212  11.0348  12.5267  12.5849  13.3381  14.0513  14.4782
    14.6544  15.0116  15.3819  19.4834  23.5307  24.0245

     occupation numbers 
     1.0000   1.0000   1.0000   1.0002   1.0017   0.0000   0.0000   0.0000
     0.0000   0.0000   0.0000   0.0000   0.0000   0.0000

          k = 0.1250 0.1250 0.3750 (   443 PWs)   bands (ev):

     7.9211  10.4594  11.5498  12.3895  12.5171  12.9300  14.0881  14.1039
    14.5576  15.1882  15.2847  17.2203  25.3238  25.6775

     occupation numbers 
     1.0000   1.0000   1.0000   1.0000   1.0002   0.3908   0.0000   0.0000
     0.0000   0.0000   0.0000   0.0000   0.0000   0.0000

          k = 0.1250 0.1250-0.5000 (   448 PWs)   bands (ev):

     9.3543   9.3621  12.0534  12.0595  12.7007  12.7007  13.8915  13.8923
    14.9380  14.9403  15.8612  15.8636  27.2336  27.2382

     occupation numbers 
     1.0000   1.0000   1.0000   1.0000   1.0251   1.0251   0.0000   0.0000
     0.0000   0.0000   0.0000   0.0000   0.0000   0.0000

          k = 0.1250 0.2500 0.2500 (   435 PWs)   bands (ev):

     7.4210  10.9682  11.3059  12.2307  12.3704  12.6624  14.4598  14.6170
    14.6574  14.9508  15.4257  19.6549  21.7752  24.7592

     occupation numbers 
     1.0000   1.0000   1.0000   1.0000   1.0000   1.0131   0.0000   0.0000
     0.0000   0.0000   0.0000   0.0000   0.0000   0.0000

          k = 0.1250 0.2500 0.3750 (   441 PWs)   bands (ev):

     8.5617  10.5799  11.6983  12.0544  12.2578  12.3932  14.2863  14.5041
    15.0700  15.3215  15.3670  17.7597  22.7330  26.1753

     occupation numbers 
     1.0000   1.0000   1.0000   1.0000   1.0000   1.0000   0.0000   0.0000
     0.0000   0.0000   0.0000   0.0000   0.0000   0.0000

          k = 0.1250 0.2500-0.5000 (   440 PWs)   bands (ev):

     9.7119   9.7213  11.9247  11.9284  12.3081  12.3193  14.3448  14.3488
    15.1995  15.2026  16.2250  16.2263  24.4769  24.4773

     occupation numbers 
     1.0000   1.0000   1.0000   1.0000   1.0000   1.0000   0.0000   0.0000
     0.0000   0.0000   0.0000   0.0000   0.0000   0.0000

          k = 0.1250 0.3750 0.3750 (   445 PWs)   bands (ev):

     9.3089  10.2962  11.8108  11.9612  12.3033  12.3777  14.4982  14.7526
    15.0909  15.4291  15.8667  17.5318  21.5461  24.1456

     occupation numbers 
     1.0000   1.0000   1.0000   1.0000   1.0000   1.0000   0.0000   0.0000
     0.0000   0.0000   0.0000   0.0000   0.0000   0.0000

          k = 0.1250 0.3750-0.5000 (   440 PWs)   bands (ev):

     9.8649   9.8861  11.7690  11.7714  12.6158  12.6232  14.6989  14.7043
    15.2329  15.2389  16.5648  16.5650  22.3258  22.3280

     occupation numbers 
     1.0000   1.0000   1.0000   1.0000   1.0043   1.0052   0.0000   0.0000
     0.0000   0.0000   0.0000   0.0000   0.0000   0.0000

          k = 0.1250-0.5000-0.5000 (   444 PWs)   bands (ev):

     9.8698   9.8935  11.6509  11.6509  13.0553  13.0553  14.8210  14.8264
    15.1478  15.1572  16.6712  16.6712  21.5120  21.5157

     occupation numbers 
     1.0000   1.0000   1.0000   1.0000  -0.0296  -0.0296   0.0000   0.0000
     0.0000   0.0000   0.0000   0.0000   0.0000   0.0000

          k = 0.2500 0.2500 0.2500 (   443 PWs)   bands (ev):

     8.1901  11.4009  11.4009  11.9018  12.0283  12.0283  14.8669  14.8669
    14.9264  14.9264  15.2902  21.0144  21.0144  22.9959

     occupation numbers 
     1.0000   1.0000   1.0000   1.0000   1.0000   1.0000   0.0000   0.0000
     0.0000   0.0000   0.0000   0.0000   0.0000   0.0000

          k = 0.2500 0.2500 0.3750 (   445 PWs)   bands (ev):

     9.2377  10.9863  11.5109  11.8066  11.9222  12.0189  14.6412  14.7333
    15.0860  15.1184  16.0411  18.7622  22.7193  23.7188

     occupation numbers 
     1.0000   1.0000   1.0000   1.0000   1.0000   1.0000   0.0000   0.0000
     0.0000   0.0000   0.0000   0.0000   0.0000   0.0000

          k = 0.2500 0.2500-0.5000 (   442 PWs)   bands (ev):

    10.2056  10.2266  11.6288  11.6398  12.0548  12.0736  14.6126  14.6184
    15.1570  15.1627  17.0742  17.0745  24.6526  24.6535

     occupation numbers 
     1.0000   1.0000   1.0000   1.0000   1.0000   1.0000   0.0000   0.0000
     0.0000   0.0000   0.0000   0.0000   0.0000   0.0000

          k = 0.2500 0.3750 0.3750 (   438 PWs)   bands (ev):

    10.0029  10.8123  11.6449  11.6601  11.8315  11.9661  14.7978  14.9065
    15.0955  15.1320  16.8610  19.0456  21.5658  24.3685

     occupation numbers 
     1.0000   1.0000   1.0000   1.0000   1.0000   1.0000   0.0000   0.0000
     0.0000   0.0000   0.0000   0.0000   0.0000   0.0000

          k = 0.2500 0.3750-0.5000 (   442 PWs)   bands (ev):

    10.4648  10.4925  11.5765  11.5847  12.0592  12.0716  14.8716  14.8786
    15.1546  15.1625  17.8665  17.8669  22.5820  22.5837

     occupation numbers 
     1.0000   1.0000   1.0000   1.0000   1.0000   1.0000   0.0000   0.0000
     0.0000   0.0000   0.0000   0.0000   0.0000   0.0000

          k = 0.2500-0.5000-0.5000 (   436 PWs)   bands (ev):

    10.4686  10.4965  11.5133  11.5133  12.3054  12.3054  14.9586  14.9657
    15.1643  15.1736  18.2612  18.2612  21.5831  21.5869

     occupation numbers 
     1.0000   1.0000   1.0000   1.0000   1.0000   1.0000   0.0000   0.0000
     0.0000   0.0000   0.0000   0.0000   0.0000   0.0000

          k = 0.3750 0.3750 0.3750 (   450 PWs)   bands (ev):

    10.8076  11.1074  11.4974  11.4974  11.6469  11.6469  15.0494  15.0494
    15.0855  15.0855  17.9551  20.8737  20.8737  22.9888

     occupation numbers 
     1.0000   1.0000   1.0000   1.0000   1.0000   1.0000   0.0000   0.0000
     0.0000   0.0000   0.0000   0.0000   0.0000   0.0000

          k = 0.3750 0.3750-0.5000 (   452 PWs)   bands (ev):

    11.0403  11.0725  11.4675  11.4942  11.6686  11.6978  15.0553  15.0637
    15.1532  15.1619  19.2423  19.2433  22.9474  22.9525

     occupation numbers 
     1.0000   1.0000   1.0000   1.0000   1.0000   1.0000   0.0000   0.0000
     0.0000   0.0000   0.0000   0.0000   0.0000   0.0000

          k = 0.3750-0.5000-0.5000 (   440 PWs)   bands (ev):

    11.1413  11.1736  11.4109  11.4109  11.7537  11.7537  15.1145  15.1231
    15.1812  15.1905  20.1915  20.1915  21.8960  21.9006

     occupation numbers 
     1.0000   1.0000   1.0000   1.0000   1.0000   1.0000   0.0000   0.0000
     0.0000   0.0000   0.0000   0.0000   0.0000   0.0000

          k =-0.5000-0.5000-0.5000 (   432 PWs)   bands (ev):

    11.4474  11.4474  11.4474  11.4815  11.4815  11.4815  15.1880  15.1880
    15.1973  15.1973  22.3493  22.3493  22.3493  22.3576

     occupation numbers 
     1.0000   1.0000   1.0000   1.0000   1.0000   1.0000   0.0000   0.0000
     0.0000   0.0000   0.0000   0.0000   0.0000   0.0000

     the Fermi energy is    12.9123 ev

!    total energy              =    -111.57601728 Ry
     Harris-Foulkes estimate   =    -111.57601728 Ry
     estimated scf accuracy    <          1.4E-10 Ry

     The total energy is the sum of the following terms:

     one-electron contribution =      13.81455111 Ry
     hartree contribution      =      13.42686830 Ry
     xc contribution           =     -52.90001744 Ry
     ewald contribution        =     -85.94499659 Ry
     Hubbard energy            =       0.02763520 Ry
     smearing contrib. (-TS)   =      -0.00005786 Ry

     total magnetization       =     4.85 Bohr mag/cell
     absolute magnetization    =     5.19 Bohr mag/cell

     convergence has been achieved in   9 iterations

     Writing output data file fe.save
 
     init_run     :      0.61s CPU      0.62s WALL (       1 calls)
     electrons    :      6.90s CPU      7.09s WALL (       1 calls)

     Called by init_run:
     wfcinit      :      0.02s CPU      0.02s WALL (       1 calls)
     potinit      :      0.18s CPU      0.18s WALL (       1 calls)

     Called by electrons:
     c_bands      :      5.02s CPU      5.17s WALL (       9 calls)
     sum_band     :      1.24s CPU      1.26s WALL (       9 calls)
     v_of_rho     :      0.26s CPU      0.26s WALL (      10 calls)
     v_h          :      0.01s CPU      0.01s WALL (      10 calls)
     v_xc         :      0.25s CPU      0.26s WALL (      10 calls)
     newd         :      0.39s CPU      0.40s WALL (      10 calls)
     mix_rho      :      0.02s CPU      0.02s WALL (       9 calls)

     Called by c_bands:
     init_us_2    :      0.12s CPU      0.14s WALL (    1330 calls)
     cegterg      :      4.46s CPU      4.65s WALL (     630 calls)

     Called by sum_band:
     sum_band:bec :      0.01s CPU      0.02s WALL (     630 calls)
     addusdens    :      0.50s CPU      0.50s WALL (       9 calls)

     Called by *egterg:
     h_psi        :      2.37s CPU      2.60s WALL (    2252 calls)
     s_psi        :      0.17s CPU      0.16s WALL (    2322 calls)
     g_psi        :      0.03s CPU      0.05s WALL (    1622 calls)
     cdiaghg      :      1.20s CPU      1.28s WALL (    2182 calls)
     cegterg:over :      0.23s CPU      0.21s WALL (    1622 calls)
     cegterg:upda :      0.17s CPU      0.11s WALL (    1622 calls)
     cegterg:last :      0.08s CPU      0.07s WALL (     691 calls)

     Called by h_psi:
     h_psi:vloc   :      1.88s CPU      2.06s WALL (    2252 calls)
     h_psi:vnl    :      0.32s CPU      0.36s WALL (    2252 calls)
     add_vuspsi   :      0.14s CPU      0.17s WALL (    2252 calls)
     vhpsi        :      0.14s CPU      0.17s WALL (    2252 calls)

     General routines
     calbec       :      0.30s CPU      0.36s WALL (    5834 calls)
     fft          :      0.14s CPU      0.14s WALL (     298 calls)
     ffts         :      0.00s CPU      0.00s WALL (      38 calls)
     fftw         :      1.79s CPU      1.95s WALL (   54242 calls)
     interpolate  :      0.03s CPU      0.02s WALL (      38 calls)
     davcio       :      0.01s CPU      0.00s WALL (     210 calls)
 
     Parallel routines
     fft_scatter  :      0.77s CPU      0.88s WALL (   54578 calls)
     Hubbard U routines
     new_ns       :      0.05s CPU      0.05s WALL (       9 calls)
     vhpsi        :      0.14s CPU      0.17s WALL (    2252 calls)
 
     PWSCF        :     7.80s CPU         8.01s WALL

 
   This run was terminated on:  17:33: 4  30Jun2014            

=------------------------------------------------------------------------------=
   JOB DONE.
=------------------------------------------------------------------------------=
