
     Program PWSCF v.5.1 starts on 30Jun2014 at 17:33:12 

     This program is part of the open-source Quantum ESPRESSO suite
     for quantum simulation of materials; please cite
         "P. Giannozzi et al., J. Phys.:Condens. Matter 21 395502 (2009);
          URL http://www.quantum-espresso.org", 
     in publications or presentations arising from this work. More details at
     http://www.quantum-espresso.org/quote

     Parallel version (MPI), running on     4 processors
     R & G space division:  proc/nbgrp/npool/nimage =       4
     Waiting for input...
     Reading input from standard input

     Current dimensions of program PWSCF are:
     Max number of different atomic species (ntypx) = 10
     Max number of k-points (npk) =  40000
     Max angular momentum in pseudopotentials (lmaxx) =  3
               file Fe.pbe-nd-rrkjus.UPF: wavefunction(s)  4S renormalized
               file Fe.pbe-nd-rrkjus.UPF: wavefunction(s)  4S renormalized

     Subspace diagonalization in iterative solution of the eigenvalue problem:
     a serial algorithm will be used

 
     Parallelization info
     --------------------
     sticks:   dense  smooth     PW     G-vecs:    dense   smooth      PW
     Min         211      71     24                 4581      891     184
     Max         212      72     25                 4582      900     187
     Sum         845     285     97                18325     3575     739
 
     Generating pointlists ...
     new r_m :   0.3572 (alat units)  1.9362 (a.u.) for type    1
     new r_m :   0.3572 (alat units)  1.9362 (a.u.) for type    2


     bravais-lattice index     =            1
     lattice parameter (alat)  =       5.4200  a.u.
     unit-cell volume          =     159.2201 (a.u.)^3
     number of atoms/cell      =            2
     number of atomic types    =            2
     number of electrons       =        16.00
     number of Kohn-Sham states=           14
     kinetic-energy cutoff     =      30.0000  Ry
     charge density cutoff     =     360.0000  Ry
     convergence threshold     =      1.0E-09
     mixing beta               =       0.7000
     number of iterations used =            8  plain     mixing
     Exchange-correlation      =  SLA  PW   PBE  PBE ( 1  4  3  4 0)

     celldm(1)=   5.420000  celldm(2)=   0.000000  celldm(3)=   0.000000
     celldm(4)=   0.000000  celldm(5)=   0.000000  celldm(6)=   0.000000

     crystal axes: (cart. coord. in units of alat)
               a(1) = (   1.000000   0.000000   0.000000 )  
               a(2) = (   0.000000   1.000000   0.000000 )  
               a(3) = (   0.000000   0.000000   1.000000 )  

     reciprocal axes: (cart. coord. in units 2 pi/alat)
               b(1) = (  1.000000  0.000000  0.000000 )  
               b(2) = (  0.000000  1.000000  0.000000 )  
               b(3) = (  0.000000  0.000000  1.000000 )  


     PseudoPot. # 1 for Fe read from file:
     ../pseudo/Fe.pbe-nd-rrkjus.UPF
     MD5 check sum: 23c640529ef232ac9996b4ec1b0ce2fd
     Pseudo is Ultrasoft + core correction, Zval =  8.0
     Generated by new atomic code, or converted to UPF format
     Using radial grid of  957 points,  6 beta functions with: 
                l(1) =   0
                l(2) =   0
                l(3) =   1
                l(4) =   1
                l(5) =   2
                l(6) =   2
     Q(r) pseudized with 0 coefficients 


     PseudoPot. # 2 for Fe read from file:
     ../pseudo/Fe.pbe-nd-rrkjus.UPF
     MD5 check sum: 23c640529ef232ac9996b4ec1b0ce2fd
     Pseudo is Ultrasoft + core correction, Zval =  8.0
     Generated by new atomic code, or converted to UPF format
     Using radial grid of  957 points,  6 beta functions with: 
                l(1) =   0
                l(2) =   0
                l(3) =   1
                l(4) =   1
                l(5) =   2
                l(6) =   2
     Q(r) pseudized with 0 coefficients 


     atomic species   valence    mass     pseudopotential
        Fe1            8.00     1.00000     Fe( 1.00)
        Fe             8.00     1.00000     Fe( 1.00)

     Starting magnetic structure 
     atomic species   magnetization
        Fe1          0.600
        Fe           0.600


     Simplified LDA+U calculation (l_max = 2) with parameters (eV):
     atomic species    L          U    alpha       J0     beta
        Fe1            2     0.0000   0.1000   0.0000   0.0000
        Fe             2     0.0000   0.0000   0.0000   0.0000



     48 Sym. Ops., with inversion, found


                                    s                        frac. trans.

      isym =  1     identity                                     

 cryst.   s( 1) = (     1          0          0      )
                  (     0          1          0      )
                  (     0          0          1      )

 cart.    s( 1) = (  1.0000000  0.0000000  0.0000000 )
                  (  0.0000000  1.0000000  0.0000000 )
                  (  0.0000000  0.0000000  1.0000000 )


      isym =  2     180 deg rotation - cart. axis [0,0,1]        

 cryst.   s( 2) = (    -1          0          0      )
                  (     0         -1          0      )
                  (     0          0          1      )

 cart.    s( 2) = ( -1.0000000  0.0000000  0.0000000 )
                  (  0.0000000 -1.0000000  0.0000000 )
                  (  0.0000000  0.0000000  1.0000000 )


      isym =  3     180 deg rotation - cart. axis [0,1,0]        

 cryst.   s( 3) = (    -1          0          0      )
                  (     0          1          0      )
                  (     0          0         -1      )

 cart.    s( 3) = ( -1.0000000  0.0000000  0.0000000 )
                  (  0.0000000  1.0000000  0.0000000 )
                  (  0.0000000  0.0000000 -1.0000000 )


      isym =  4     180 deg rotation - cart. axis [1,0,0]        

 cryst.   s( 4) = (     1          0          0      )
                  (     0         -1          0      )
                  (     0          0         -1      )

 cart.    s( 4) = (  1.0000000  0.0000000  0.0000000 )
                  (  0.0000000 -1.0000000  0.0000000 )
                  (  0.0000000  0.0000000 -1.0000000 )


      isym =  5     180 deg rotation - cart. axis [1,1,0]        

 cryst.   s( 5) = (     0          1          0      )
                  (     1          0          0      )
                  (     0          0         -1      )

 cart.    s( 5) = (  0.0000000  1.0000000  0.0000000 )
                  (  1.0000000  0.0000000  0.0000000 )
                  (  0.0000000  0.0000000 -1.0000000 )


      isym =  6     180 deg rotation - cart. axis [1,-1,0]       

 cryst.   s( 6) = (     0         -1          0      )
                  (    -1          0          0      )
                  (     0          0         -1      )

 cart.    s( 6) = (  0.0000000 -1.0000000  0.0000000 )
                  ( -1.0000000  0.0000000  0.0000000 )
                  (  0.0000000  0.0000000 -1.0000000 )


      isym =  7      90 deg rotation - cart. axis [0,0,-1]       

 cryst.   s( 7) = (     0         -1          0      )
                  (     1          0          0      )
                  (     0          0          1      )

 cart.    s( 7) = (  0.0000000  1.0000000  0.0000000 )
                  ( -1.0000000  0.0000000  0.0000000 )
                  (  0.0000000  0.0000000  1.0000000 )


      isym =  8      90 deg rotation - cart. axis [0,0,1]        

 cryst.   s( 8) = (     0          1          0      )
                  (    -1          0          0      )
                  (     0          0          1      )

 cart.    s( 8) = (  0.0000000 -1.0000000  0.0000000 )
                  (  1.0000000  0.0000000  0.0000000 )
                  (  0.0000000  0.0000000  1.0000000 )


      isym =  9     180 deg rotation - cart. axis [1,0,1]        

 cryst.   s( 9) = (     0          0          1      )
                  (     0         -1          0      )
                  (     1          0          0      )

 cart.    s( 9) = (  0.0000000  0.0000000  1.0000000 )
                  (  0.0000000 -1.0000000  0.0000000 )
                  (  1.0000000  0.0000000  0.0000000 )


      isym = 10     180 deg rotation - cart. axis [-1,0,1]       

 cryst.   s(10) = (     0          0         -1      )
                  (     0         -1          0      )
                  (    -1          0          0      )

 cart.    s(10) = (  0.0000000  0.0000000 -1.0000000 )
                  (  0.0000000 -1.0000000  0.0000000 )
                  ( -1.0000000  0.0000000  0.0000000 )


      isym = 11      90 deg rotation - cart. axis [0,1,0]        

 cryst.   s(11) = (     0          0         -1      )
                  (     0          1          0      )
                  (     1          0          0      )

 cart.    s(11) = (  0.0000000  0.0000000  1.0000000 )
                  (  0.0000000  1.0000000  0.0000000 )
                  ( -1.0000000  0.0000000  0.0000000 )


      isym = 12      90 deg rotation - cart. axis [0,-1,0]       

 cryst.   s(12) = (     0          0          1      )
                  (     0          1          0      )
                  (    -1          0          0      )

 cart.    s(12) = (  0.0000000  0.0000000 -1.0000000 )
                  (  0.0000000  1.0000000  0.0000000 )
                  (  1.0000000  0.0000000  0.0000000 )


      isym = 13     180 deg rotation - cart. axis [0,1,1]        

 cryst.   s(13) = (    -1          0          0      )
                  (     0          0          1      )
                  (     0          1          0      )

 cart.    s(13) = ( -1.0000000  0.0000000  0.0000000 )
                  (  0.0000000  0.0000000  1.0000000 )
                  (  0.0000000  1.0000000  0.0000000 )


      isym = 14     180 deg rotation - cart. axis [0,1,-1]       

 cryst.   s(14) = (    -1          0          0      )
                  (     0          0         -1      )
                  (     0         -1          0      )

 cart.    s(14) = ( -1.0000000  0.0000000  0.0000000 )
                  (  0.0000000  0.0000000 -1.0000000 )
                  (  0.0000000 -1.0000000  0.0000000 )


      isym = 15      90 deg rotation - cart. axis [-1,0,0]       

 cryst.   s(15) = (     1          0          0      )
                  (     0          0         -1      )
                  (     0          1          0      )

 cart.    s(15) = (  1.0000000  0.0000000  0.0000000 )
                  (  0.0000000  0.0000000  1.0000000 )
                  (  0.0000000 -1.0000000  0.0000000 )


      isym = 16      90 deg rotation - cart. axis [1,0,0]        

 cryst.   s(16) = (     1          0          0      )
                  (     0          0          1      )
                  (     0         -1          0      )

 cart.    s(16) = (  1.0000000  0.0000000  0.0000000 )
                  (  0.0000000  0.0000000 -1.0000000 )
                  (  0.0000000  1.0000000  0.0000000 )


      isym = 17     120 deg rotation - cart. axis [-1,-1,-1]     

 cryst.   s(17) = (     0          0          1      )
                  (     1          0          0      )
                  (     0          1          0      )

 cart.    s(17) = (  0.0000000  1.0000000  0.0000000 )
                  (  0.0000000  0.0000000  1.0000000 )
                  (  1.0000000  0.0000000  0.0000000 )


      isym = 18     120 deg rotation - cart. axis [-1,1,1]       

 cryst.   s(18) = (     0          0         -1      )
                  (    -1          0          0      )
                  (     0          1          0      )

 cart.    s(18) = (  0.0000000 -1.0000000  0.0000000 )
                  (  0.0000000  0.0000000  1.0000000 )
                  ( -1.0000000  0.0000000  0.0000000 )


      isym = 19     120 deg rotation - cart. axis [1,1,-1]       

 cryst.   s(19) = (     0          0         -1      )
                  (     1          0          0      )
                  (     0         -1          0      )

 cart.    s(19) = (  0.0000000  1.0000000  0.0000000 )
                  (  0.0000000  0.0000000 -1.0000000 )
                  ( -1.0000000  0.0000000  0.0000000 )


      isym = 20     120 deg rotation - cart. axis [1,-1,1]       

 cryst.   s(20) = (     0          0          1      )
                  (    -1          0          0      )
                  (     0         -1          0      )

 cart.    s(20) = (  0.0000000 -1.0000000  0.0000000 )
                  (  0.0000000  0.0000000 -1.0000000 )
                  (  1.0000000  0.0000000  0.0000000 )


      isym = 21     120 deg rotation - cart. axis [1,1,1]        

 cryst.   s(21) = (     0          1          0      )
                  (     0          0          1      )
                  (     1          0          0      )

 cart.    s(21) = (  0.0000000  0.0000000  1.0000000 )
                  (  1.0000000  0.0000000  0.0000000 )
                  (  0.0000000  1.0000000  0.0000000 )


      isym = 22     120 deg rotation - cart. axis [-1,1,-1]      

 cryst.   s(22) = (     0         -1          0      )
                  (     0          0         -1      )
                  (     1          0          0      )

 cart.    s(22) = (  0.0000000  0.0000000  1.0000000 )
                  ( -1.0000000  0.0000000  0.0000000 )
                  (  0.0000000 -1.0000000  0.0000000 )


      isym = 23     120 deg rotation - cart. axis [1,-1,-1]      

 cryst.   s(23) = (     0         -1          0      )
                  (     0          0          1      )
                  (    -1          0          0      )

 cart.    s(23) = (  0.0000000  0.0000000 -1.0000000 )
                  ( -1.0000000  0.0000000  0.0000000 )
                  (  0.0000000  1.0000000  0.0000000 )


      isym = 24     120 deg rotation - cart. axis [-1,-1,1]      

 cryst.   s(24) = (     0          1          0      )
                  (     0          0         -1      )
                  (    -1          0          0      )

 cart.    s(24) = (  0.0000000  0.0000000 -1.0000000 )
                  (  1.0000000  0.0000000  0.0000000 )
                  (  0.0000000 -1.0000000  0.0000000 )


      isym = 25     inversion                                    

 cryst.   s(25) = (    -1          0          0      )
                  (     0         -1          0      )
                  (     0          0         -1      )

 cart.    s(25) = ( -1.0000000  0.0000000  0.0000000 )
                  (  0.0000000 -1.0000000  0.0000000 )
                  (  0.0000000  0.0000000 -1.0000000 )


      isym = 26     inv. 180 deg rotation - cart. axis [0,0,1]   

 cryst.   s(26) = (     1          0          0      )
                  (     0          1          0      )
                  (     0          0         -1      )

 cart.    s(26) = (  1.0000000  0.0000000  0.0000000 )
                  (  0.0000000  1.0000000  0.0000000 )
                  (  0.0000000  0.0000000 -1.0000000 )


      isym = 27     inv. 180 deg rotation - cart. axis [0,1,0]   

 cryst.   s(27) = (     1          0          0      )
                  (     0         -1          0      )
                  (     0          0          1      )

 cart.    s(27) = (  1.0000000  0.0000000  0.0000000 )
                  (  0.0000000 -1.0000000  0.0000000 )
                  (  0.0000000  0.0000000  1.0000000 )


      isym = 28     inv. 180 deg rotation - cart. axis [1,0,0]   

 cryst.   s(28) = (    -1          0          0      )
                  (     0          1          0      )
                  (     0          0          1      )

 cart.    s(28) = ( -1.0000000  0.0000000  0.0000000 )
                  (  0.0000000  1.0000000  0.0000000 )
                  (  0.0000000  0.0000000  1.0000000 )


      isym = 29     inv. 180 deg rotation - cart. axis [1,1,0]   

 cryst.   s(29) = (     0         -1          0      )
                  (    -1          0          0      )
                  (     0          0          1      )

 cart.    s(29) = (  0.0000000 -1.0000000  0.0000000 )
                  ( -1.0000000  0.0000000  0.0000000 )
                  (  0.0000000  0.0000000  1.0000000 )


      isym = 30     inv. 180 deg rotation - cart. axis [1,-1,0]  

 cryst.   s(30) = (     0          1          0      )
                  (     1          0          0      )
                  (     0          0          1      )

 cart.    s(30) = (  0.0000000  1.0000000  0.0000000 )
                  (  1.0000000  0.0000000  0.0000000 )
                  (  0.0000000  0.0000000  1.0000000 )


      isym = 31     inv.  90 deg rotation - cart. axis [0,0,-1]  

 cryst.   s(31) = (     0          1          0      )
                  (    -1          0          0      )
                  (     0          0         -1      )

 cart.    s(31) = (  0.0000000 -1.0000000  0.0000000 )
                  (  1.0000000  0.0000000  0.0000000 )
                  (  0.0000000  0.0000000 -1.0000000 )


      isym = 32     inv.  90 deg rotation - cart. axis [0,0,1]   

 cryst.   s(32) = (     0         -1          0      )
                  (     1          0          0      )
                  (     0          0         -1      )

 cart.    s(32) = (  0.0000000  1.0000000  0.0000000 )
                  ( -1.0000000  0.0000000  0.0000000 )
                  (  0.0000000  0.0000000 -1.0000000 )


      isym = 33     inv. 180 deg rotation - cart. axis [1,0,1]   

 cryst.   s(33) = (     0          0         -1      )
                  (     0          1          0      )
                  (    -1          0          0      )

 cart.    s(33) = (  0.0000000  0.0000000 -1.0000000 )
                  (  0.0000000  1.0000000  0.0000000 )
                  ( -1.0000000  0.0000000  0.0000000 )


      isym = 34     inv. 180 deg rotation - cart. axis [-1,0,1]  

 cryst.   s(34) = (     0          0          1      )
                  (     0          1          0      )
                  (     1          0          0      )

 cart.    s(34) = (  0.0000000  0.0000000  1.0000000 )
                  (  0.0000000  1.0000000  0.0000000 )
                  (  1.0000000  0.0000000  0.0000000 )


      isym = 35     inv.  90 deg rotation - cart. axis [0,1,0]   

 cryst.   s(35) = (     0          0          1      )
                  (     0         -1          0      )
                  (    -1          0          0      )

 cart.    s(35) = (  0.0000000  0.0000000 -1.0000000 )
                  (  0.0000000 -1.0000000  0.0000000 )
                  (  1.0000000  0.0000000  0.0000000 )


      isym = 36     inv.  90 deg rotation - cart. axis [0,-1,0]  

 cryst.   s(36) = (     0          0         -1      )
                  (     0         -1          0      )
                  (     1          0          0      )

 cart.    s(36) = (  0.0000000  0.0000000  1.0000000 )
                  (  0.0000000 -1.0000000  0.0000000 )
                  ( -1.0000000  0.0000000  0.0000000 )


      isym = 37     inv. 180 deg rotation - cart. axis [0,1,1]   

 cryst.   s(37) = (     1          0          0      )
                  (     0          0         -1      )
                  (     0         -1          0      )

 cart.    s(37) = (  1.0000000  0.0000000  0.0000000 )
                  (  0.0000000  0.0000000 -1.0000000 )
                  (  0.0000000 -1.0000000  0.0000000 )


      isym = 38     inv. 180 deg rotation - cart. axis [0,1,-1]  

 cryst.   s(38) = (     1          0          0      )
                  (     0          0          1      )
                  (     0          1          0      )

 cart.    s(38) = (  1.0000000  0.0000000  0.0000000 )
                  (  0.0000000  0.0000000  1.0000000 )
                  (  0.0000000  1.0000000  0.0000000 )


      isym = 39     inv.  90 deg rotation - cart. axis [-1,0,0]  

 cryst.   s(39) = (    -1          0          0      )
                  (     0          0          1      )
                  (     0         -1          0      )

 cart.    s(39) = ( -1.0000000  0.0000000  0.0000000 )
                  (  0.0000000  0.0000000 -1.0000000 )
                  (  0.0000000  1.0000000  0.0000000 )


      isym = 40     inv.  90 deg rotation - cart. axis [1,0,0]   

 cryst.   s(40) = (    -1          0          0      )
                  (     0          0         -1      )
                  (     0          1          0      )

 cart.    s(40) = ( -1.0000000  0.0000000  0.0000000 )
                  (  0.0000000  0.0000000  1.0000000 )
                  (  0.0000000 -1.0000000  0.0000000 )


      isym = 41     inv. 120 deg rotation - cart. axis [-1,-1,-1]

 cryst.   s(41) = (     0          0         -1      )
                  (    -1          0          0      )
                  (     0         -1          0      )

 cart.    s(41) = (  0.0000000 -1.0000000  0.0000000 )
                  (  0.0000000  0.0000000 -1.0000000 )
                  ( -1.0000000  0.0000000  0.0000000 )


      isym = 42     inv. 120 deg rotation - cart. axis [-1,1,1]  

 cryst.   s(42) = (     0          0          1      )
                  (     1          0          0      )
                  (     0         -1          0      )

 cart.    s(42) = (  0.0000000  1.0000000  0.0000000 )
                  (  0.0000000  0.0000000 -1.0000000 )
                  (  1.0000000  0.0000000  0.0000000 )


      isym = 43     inv. 120 deg rotation - cart. axis [1,1,-1]  

 cryst.   s(43) = (     0          0          1      )
                  (    -1          0          0      )
                  (     0          1          0      )

 cart.    s(43) = (  0.0000000 -1.0000000  0.0000000 )
                  (  0.0000000  0.0000000  1.0000000 )
                  (  1.0000000  0.0000000  0.0000000 )


      isym = 44     inv. 120 deg rotation - cart. axis [1,-1,1]  

 cryst.   s(44) = (     0          0         -1      )
                  (     1          0          0      )
                  (     0          1          0      )

 cart.    s(44) = (  0.0000000  1.0000000  0.0000000 )
                  (  0.0000000  0.0000000  1.0000000 )
                  ( -1.0000000  0.0000000  0.0000000 )


      isym = 45     inv. 120 deg rotation - cart. axis [1,1,1]   

 cryst.   s(45) = (     0         -1          0      )
                  (     0          0         -1      )
                  (    -1          0          0      )

 cart.    s(45) = (  0.0000000  0.0000000 -1.0000000 )
                  ( -1.0000000  0.0000000  0.0000000 )
                  (  0.0000000 -1.0000000  0.0000000 )


      isym = 46     inv. 120 deg rotation - cart. axis [-1,1,-1] 

 cryst.   s(46) = (     0          1          0      )
                  (     0          0          1      )
                  (    -1          0          0      )

 cart.    s(46) = (  0.0000000  0.0000000 -1.0000000 )
                  (  1.0000000  0.0000000  0.0000000 )
                  (  0.0000000  1.0000000  0.0000000 )


      isym = 47     inv. 120 deg rotation - cart. axis [1,-1,-1] 

 cryst.   s(47) = (     0          1          0      )
                  (     0          0         -1      )
                  (     1          0          0      )

 cart.    s(47) = (  0.0000000  0.0000000  1.0000000 )
                  (  1.0000000  0.0000000  0.0000000 )
                  (  0.0000000 -1.0000000  0.0000000 )


      isym = 48     inv. 120 deg rotation - cart. axis [-1,-1,1] 

 cryst.   s(48) = (     0         -1          0      )
                  (     0          0          1      )
                  (     1          0          0      )

 cart.    s(48) = (  0.0000000  0.0000000  1.0000000 )
                  ( -1.0000000  0.0000000  0.0000000 )
                  (  0.0000000  1.0000000  0.0000000 )


     point group O_h (m-3m) 
     there are 10 classes
     the character table:

       E     8C3   6C2'  6C4   3C2   i     6S4   8S6   3s_h  6s_d 
A_1g   1.00  1.00  1.00  1.00  1.00  1.00  1.00  1.00  1.00  1.00
A_2g   1.00  1.00 -1.00 -1.00  1.00  1.00 -1.00  1.00  1.00 -1.00
E_g    2.00 -1.00  0.00  0.00  2.00  2.00  0.00 -1.00  2.00  0.00
T_1g   3.00  0.00 -1.00  1.00 -1.00  3.00  1.00  0.00 -1.00 -1.00
T_2g   3.00  0.00  1.00 -1.00 -1.00  3.00 -1.00  0.00 -1.00  1.00
A_1u   1.00  1.00  1.00  1.00  1.00 -1.00 -1.00 -1.00 -1.00 -1.00
A_2u   1.00  1.00 -1.00 -1.00  1.00 -1.00  1.00 -1.00 -1.00  1.00
E_u    2.00 -1.00  0.00  0.00  2.00 -2.00  0.00  1.00 -2.00  0.00
T_1u   3.00  0.00 -1.00  1.00 -1.00 -3.00 -1.00  0.00  1.00  1.00
T_2u   3.00  0.00  1.00 -1.00 -1.00 -3.00  1.00  0.00  1.00 -1.00

     the symmetry operations in each class:
     E        1
     3C2      2    4    3
     6C2'     5    6   14   13   10    9
     6C4      7    8   15   16   12   11
     8C3     17   19   20   18   24   21   22   23
     i       25
     3s_h    26   28   27
     6s_d    29   30   38   37   34   33
     6S4     31   32   39   40   36   35
     8S6     41   43   44   42   48   45   46   47

   Cartesian axes

     site n.     atom                  positions (alat units)
         1           Fe1 tau(   1) = (   0.0000000   0.0000000   0.0000000  )
         2           Fe  tau(   2) = (   0.5000000   0.5000000   0.5000000  )

   Crystallographic axes

     site n.     atom                  positions (cryst. coord.)
         1           Fe1 tau(   1) = (  0.0000000  0.0000000  0.0000000  )
         2           Fe  tau(   2) = (  0.5000000  0.5000000  0.5000000  )

     number of k points=    70  Methfessel-Paxton smearing, width (Ry)=  0.0100
                       cart. coord. in units 2pi/alat
        k(    1) = (   0.0000000   0.0000000   0.0000000), wk =   0.0019531
        k(    2) = (   0.0000000   0.0000000   0.1250000), wk =   0.0117188
        k(    3) = (   0.0000000   0.0000000   0.2500000), wk =   0.0117188
        k(    4) = (   0.0000000   0.0000000   0.3750000), wk =   0.0117188
        k(    5) = (   0.0000000   0.0000000  -0.5000000), wk =   0.0058594
        k(    6) = (   0.0000000   0.1250000   0.1250000), wk =   0.0234375
        k(    7) = (   0.0000000   0.1250000   0.2500000), wk =   0.0468750
        k(    8) = (   0.0000000   0.1250000   0.3750000), wk =   0.0468750
        k(    9) = (   0.0000000   0.1250000  -0.5000000), wk =   0.0234375
        k(   10) = (   0.0000000   0.2500000   0.2500000), wk =   0.0234375
        k(   11) = (   0.0000000   0.2500000   0.3750000), wk =   0.0468750
        k(   12) = (   0.0000000   0.2500000  -0.5000000), wk =   0.0234375
        k(   13) = (   0.0000000   0.3750000   0.3750000), wk =   0.0234375
        k(   14) = (   0.0000000   0.3750000  -0.5000000), wk =   0.0234375
        k(   15) = (   0.0000000  -0.5000000  -0.5000000), wk =   0.0058594
        k(   16) = (   0.1250000   0.1250000   0.1250000), wk =   0.0156250
        k(   17) = (   0.1250000   0.1250000   0.2500000), wk =   0.0468750
        k(   18) = (   0.1250000   0.1250000   0.3750000), wk =   0.0468750
        k(   19) = (   0.1250000   0.1250000  -0.5000000), wk =   0.0234375
        k(   20) = (   0.1250000   0.2500000   0.2500000), wk =   0.0468750
        k(   21) = (   0.1250000   0.2500000   0.3750000), wk =   0.0937500
        k(   22) = (   0.1250000   0.2500000  -0.5000000), wk =   0.0468750
        k(   23) = (   0.1250000   0.3750000   0.3750000), wk =   0.0468750
        k(   24) = (   0.1250000   0.3750000  -0.5000000), wk =   0.0468750
        k(   25) = (   0.1250000  -0.5000000  -0.5000000), wk =   0.0117188
        k(   26) = (   0.2500000   0.2500000   0.2500000), wk =   0.0156250
        k(   27) = (   0.2500000   0.2500000   0.3750000), wk =   0.0468750
        k(   28) = (   0.2500000   0.2500000  -0.5000000), wk =   0.0234375
        k(   29) = (   0.2500000   0.3750000   0.3750000), wk =   0.0468750
        k(   30) = (   0.2500000   0.3750000  -0.5000000), wk =   0.0468750
        k(   31) = (   0.2500000  -0.5000000  -0.5000000), wk =   0.0117188
        k(   32) = (   0.3750000   0.3750000   0.3750000), wk =   0.0156250
        k(   33) = (   0.3750000   0.3750000  -0.5000000), wk =   0.0234375
        k(   34) = (   0.3750000  -0.5000000  -0.5000000), wk =   0.0117188
        k(   35) = (  -0.5000000  -0.5000000  -0.5000000), wk =   0.0019531
        k(   36) = (   0.0000000   0.0000000   0.0000000), wk =   0.0019531
        k(   37) = (   0.0000000   0.0000000   0.1250000), wk =   0.0117188
        k(   38) = (   0.0000000   0.0000000   0.2500000), wk =   0.0117188
        k(   39) = (   0.0000000   0.0000000   0.3750000), wk =   0.0117188
        k(   40) = (   0.0000000   0.0000000  -0.5000000), wk =   0.0058594
        k(   41) = (   0.0000000   0.1250000   0.1250000), wk =   0.0234375
        k(   42) = (   0.0000000   0.1250000   0.2500000), wk =   0.0468750
        k(   43) = (   0.0000000   0.1250000   0.3750000), wk =   0.0468750
        k(   44) = (   0.0000000   0.1250000  -0.5000000), wk =   0.0234375
        k(   45) = (   0.0000000   0.2500000   0.2500000), wk =   0.0234375
        k(   46) = (   0.0000000   0.2500000   0.3750000), wk =   0.0468750
        k(   47) = (   0.0000000   0.2500000  -0.5000000), wk =   0.0234375
        k(   48) = (   0.0000000   0.3750000   0.3750000), wk =   0.0234375
        k(   49) = (   0.0000000   0.3750000  -0.5000000), wk =   0.0234375
        k(   50) = (   0.0000000  -0.5000000  -0.5000000), wk =   0.0058594
        k(   51) = (   0.1250000   0.1250000   0.1250000), wk =   0.0156250
        k(   52) = (   0.1250000   0.1250000   0.2500000), wk =   0.0468750
        k(   53) = (   0.1250000   0.1250000   0.3750000), wk =   0.0468750
        k(   54) = (   0.1250000   0.1250000  -0.5000000), wk =   0.0234375
        k(   55) = (   0.1250000   0.2500000   0.2500000), wk =   0.0468750
        k(   56) = (   0.1250000   0.2500000   0.3750000), wk =   0.0937500
        k(   57) = (   0.1250000   0.2500000  -0.5000000), wk =   0.0468750
        k(   58) = (   0.1250000   0.3750000   0.3750000), wk =   0.0468750
        k(   59) = (   0.1250000   0.3750000  -0.5000000), wk =   0.0468750
        k(   60) = (   0.1250000  -0.5000000  -0.5000000), wk =   0.0117188
        k(   61) = (   0.2500000   0.2500000   0.2500000), wk =   0.0156250
        k(   62) = (   0.2500000   0.2500000   0.3750000), wk =   0.0468750
        k(   63) = (   0.2500000   0.2500000  -0.5000000), wk =   0.0234375
        k(   64) = (   0.2500000   0.3750000   0.3750000), wk =   0.0468750
        k(   65) = (   0.2500000   0.3750000  -0.5000000), wk =   0.0468750
        k(   66) = (   0.2500000  -0.5000000  -0.5000000), wk =   0.0117188
        k(   67) = (   0.3750000   0.3750000   0.3750000), wk =   0.0156250
        k(   68) = (   0.3750000   0.3750000  -0.5000000), wk =   0.0234375
        k(   69) = (   0.3750000  -0.5000000  -0.5000000), wk =   0.0117188
        k(   70) = (  -0.5000000  -0.5000000  -0.5000000), wk =   0.0019531

                       cryst. coord.
        k(    1) = (   0.0000000   0.0000000   0.0000000), wk =   0.0019531
        k(    2) = (   0.0000000   0.0000000   0.1250000), wk =   0.0117188
        k(    3) = (   0.0000000   0.0000000   0.2500000), wk =   0.0117188
        k(    4) = (   0.0000000   0.0000000   0.3750000), wk =   0.0117188
        k(    5) = (   0.0000000   0.0000000  -0.5000000), wk =   0.0058594
        k(    6) = (   0.0000000   0.1250000   0.1250000), wk =   0.0234375
        k(    7) = (   0.0000000   0.1250000   0.2500000), wk =   0.0468750
        k(    8) = (   0.0000000   0.1250000   0.3750000), wk =   0.0468750
        k(    9) = (   0.0000000   0.1250000  -0.5000000), wk =   0.0234375
        k(   10) = (   0.0000000   0.2500000   0.2500000), wk =   0.0234375
        k(   11) = (   0.0000000   0.2500000   0.3750000), wk =   0.0468750
        k(   12) = (   0.0000000   0.2500000  -0.5000000), wk =   0.0234375
        k(   13) = (   0.0000000   0.3750000   0.3750000), wk =   0.0234375
        k(   14) = (   0.0000000   0.3750000  -0.5000000), wk =   0.0234375
        k(   15) = (   0.0000000  -0.5000000  -0.5000000), wk =   0.0058594
        k(   16) = (   0.1250000   0.1250000   0.1250000), wk =   0.0156250
        k(   17) = (   0.1250000   0.1250000   0.2500000), wk =   0.0468750
        k(   18) = (   0.1250000   0.1250000   0.3750000), wk =   0.0468750
        k(   19) = (   0.1250000   0.1250000  -0.5000000), wk =   0.0234375
        k(   20) = (   0.1250000   0.2500000   0.2500000), wk =   0.0468750
        k(   21) = (   0.1250000   0.2500000   0.3750000), wk =   0.0937500
        k(   22) = (   0.1250000   0.2500000  -0.5000000), wk =   0.0468750
        k(   23) = (   0.1250000   0.3750000   0.3750000), wk =   0.0468750
        k(   24) = (   0.1250000   0.3750000  -0.5000000), wk =   0.0468750
        k(   25) = (   0.1250000  -0.5000000  -0.5000000), wk =   0.0117188
        k(   26) = (   0.2500000   0.2500000   0.2500000), wk =   0.0156250
        k(   27) = (   0.2500000   0.2500000   0.3750000), wk =   0.0468750
        k(   28) = (   0.2500000   0.2500000  -0.5000000), wk =   0.0234375
        k(   29) = (   0.2500000   0.3750000   0.3750000), wk =   0.0468750
        k(   30) = (   0.2500000   0.3750000  -0.5000000), wk =   0.0468750
        k(   31) = (   0.2500000  -0.5000000  -0.5000000), wk =   0.0117188
        k(   32) = (   0.3750000   0.3750000   0.3750000), wk =   0.0156250
        k(   33) = (   0.3750000   0.3750000  -0.5000000), wk =   0.0234375
        k(   34) = (   0.3750000  -0.5000000  -0.5000000), wk =   0.0117188
        k(   35) = (  -0.5000000  -0.5000000  -0.5000000), wk =   0.0019531
        k(   36) = (   0.0000000   0.0000000   0.0000000), wk =   0.0019531
        k(   37) = (   0.0000000   0.0000000   0.1250000), wk =   0.0117188
        k(   38) = (   0.0000000   0.0000000   0.2500000), wk =   0.0117188
        k(   39) = (   0.0000000   0.0000000   0.3750000), wk =   0.0117188
        k(   40) = (   0.0000000   0.0000000  -0.5000000), wk =   0.0058594
        k(   41) = (   0.0000000   0.1250000   0.1250000), wk =   0.0234375
        k(   42) = (   0.0000000   0.1250000   0.2500000), wk =   0.0468750
        k(   43) = (   0.0000000   0.1250000   0.3750000), wk =   0.0468750
        k(   44) = (   0.0000000   0.1250000  -0.5000000), wk =   0.0234375
        k(   45) = (   0.0000000   0.2500000   0.2500000), wk =   0.0234375
        k(   46) = (   0.0000000   0.2500000   0.3750000), wk =   0.0468750
        k(   47) = (   0.0000000   0.2500000  -0.5000000), wk =   0.0234375
        k(   48) = (   0.0000000   0.3750000   0.3750000), wk =   0.0234375
        k(   49) = (   0.0000000   0.3750000  -0.5000000), wk =   0.0234375
        k(   50) = (   0.0000000  -0.5000000  -0.5000000), wk =   0.0058594
        k(   51) = (   0.1250000   0.1250000   0.1250000), wk =   0.0156250
        k(   52) = (   0.1250000   0.1250000   0.2500000), wk =   0.0468750
        k(   53) = (   0.1250000   0.1250000   0.3750000), wk =   0.0468750
        k(   54) = (   0.1250000   0.1250000  -0.5000000), wk =   0.0234375
        k(   55) = (   0.1250000   0.2500000   0.2500000), wk =   0.0468750
        k(   56) = (   0.1250000   0.2500000   0.3750000), wk =   0.0937500
        k(   57) = (   0.1250000   0.2500000  -0.5000000), wk =   0.0468750
        k(   58) = (   0.1250000   0.3750000   0.3750000), wk =   0.0468750
        k(   59) = (   0.1250000   0.3750000  -0.5000000), wk =   0.0468750
        k(   60) = (   0.1250000  -0.5000000  -0.5000000), wk =   0.0117188
        k(   61) = (   0.2500000   0.2500000   0.2500000), wk =   0.0156250
        k(   62) = (   0.2500000   0.2500000   0.3750000), wk =   0.0468750
        k(   63) = (   0.2500000   0.2500000  -0.5000000), wk =   0.0234375
        k(   64) = (   0.2500000   0.3750000   0.3750000), wk =   0.0468750
        k(   65) = (   0.2500000   0.3750000  -0.5000000), wk =   0.0468750
        k(   66) = (   0.2500000  -0.5000000  -0.5000000), wk =   0.0117188
        k(   67) = (   0.3750000   0.3750000   0.3750000), wk =   0.0156250
        k(   68) = (   0.3750000   0.3750000  -0.5000000), wk =   0.0234375
        k(   69) = (   0.3750000  -0.5000000  -0.5000000), wk =   0.0117188
        k(   70) = (  -0.5000000  -0.5000000  -0.5000000), wk =   0.0019531

     Dense  grid:    18325 G-vectors     FFT dimensions: (  36,  36,  36)

     Smooth grid:     3575 G-vectors     FFT dimensions: (  20,  20,  20)

     Largest allocated arrays     est. size (Mb)     dimensions
        Kohn-Sham Wavefunctions         0.03 Mb     (     118,   14)
        Atomic Hubbard wavefuncts       0.02 Mb     (     118,   10)
        NL pseudopotentials             0.06 Mb     (     118,   36)
        Each V/rho on FFT grid          0.36 Mb     (   11664,   2)
        Each G-vector array             0.03 Mb     (    4581)
        G-vector shells                 0.00 Mb     (     222)
     Largest temporary arrays     est. size (Mb)     dimensions
        Auxiliary wavefunctions         0.10 Mb     (     118,   56)
        Each subspace H/S matrix        0.05 Mb     (      56,   56)
        Each <psi_i|beta_j> matrix      0.01 Mb     (      36,   14)
        Arrays for rho mixing           1.42 Mb     (   11664,    8)

     The initial density is read from file :
     ./temp/fe.save/charge-density.dat

 --- in v_hubbard ---
Hubbard energy    0.0554
 -------
     Number of +U iterations with fixed ns =  0
     Starting occupations:
 --- enter write_ns ---
 LDA+U parameters:
U( 1)     =  0.00000000
alpha( 1) =  0.10000000
U( 2)     =  0.00000000
alpha( 2) =  0.00000000
atom    1   Tr[ns(na)] (up, down, total) =   4.87792  2.65575  7.53367
   spin  1
    eigenvalues: 
  0.968  0.968  0.968  0.987  0.987
    eigenvectors:
  0.000  0.000  0.000  0.659  0.341
  0.071  0.330  0.599  0.000  0.000
  0.352  0.286  0.361  0.000  0.000
  0.000  0.000  0.000  0.341  0.659
  0.577  0.384  0.039  0.000  0.000
    occupations:
  0.987  0.000  0.000  0.000  0.000
  0.000  0.968  0.000  0.000  0.000
  0.000  0.000  0.968  0.000  0.000
  0.000  0.000  0.000  0.987  0.000
  0.000  0.000  0.000  0.000  0.968
   spin  2
    eigenvalues: 
  0.441  0.441  0.591  0.591  0.591
    eigenvectors:
  0.687  0.313  0.000  0.000  0.000
  0.000  0.000  0.072  0.434  0.494
  0.000  0.000  0.325  0.230  0.445
  0.313  0.687  0.000  0.000  0.000
  0.000  0.000  0.603  0.336  0.061
    occupations:
  0.441  0.000  0.000  0.000  0.000
  0.000  0.591  0.000  0.000  0.000
  0.000  0.000  0.591  0.000  0.000
  0.000  0.000  0.000  0.441  0.000
  0.000  0.000  0.000  0.000  0.591
atomic mag. moment =     2.222170
atom    2   Tr[ns(na)] (up, down, total) =   4.87791  2.65574  7.53365
   spin  1
    eigenvalues: 
  0.968  0.968  0.968  0.987  0.987
    eigenvectors:
  0.000  0.000  0.000  0.600  0.400
  0.071  0.294  0.635  0.000  0.000
  0.358  0.309  0.334  0.000  0.000
  0.000  0.000  0.000  0.400  0.600
  0.571  0.397  0.031  0.000  0.000
    occupations:
  0.987  0.000  0.000  0.000  0.000
  0.000  0.968  0.000  0.000  0.000
  0.000  0.000  0.968  0.000  0.000
  0.000  0.000  0.000  0.987  0.000
  0.000  0.000  0.000  0.000  0.968
   spin  2
    eigenvalues: 
  0.441  0.441  0.591  0.591  0.591
    eigenvectors:
  0.521  0.479  0.000  0.000  0.000
  0.000  0.000  0.057  0.282  0.662
  0.000  0.000  0.305  0.378  0.317
  0.479  0.521  0.000  0.000  0.000
  0.000  0.000  0.638  0.340  0.022
    occupations:
  0.441  0.000  0.000  0.000  0.000
  0.000  0.591  0.000  0.000  0.000
  0.000  0.000  0.591  0.000  0.000
  0.000  0.000  0.000  0.441  0.000
  0.000  0.000  0.000  0.000  0.591
atomic mag. moment =     2.222168
N of occupied +U levels =   15.067320
 --- exit write_ns ---
 Atomic wfc used for LDA+U Projector are NOT orthogonalized
     Starting wfc from file

     total cpu time spent up to now is        0.7 secs

     per-process dynamical memory:     9.7 Mb

     Self-consistent Calculation

     iteration #  1     ecut=    30.00 Ry     beta=0.70
     Davidson diagonalization with overlap
     c_bands:  1 eigenvalues not converged
     c_bands:  2 eigenvalues not converged
     ethr =  1.49E-10,  avg # of iterations =  5.7
 --- enter write_ns ---
 LDA+U parameters:
U( 1)     =  0.00000000
alpha( 1) =  0.10000000
U( 2)     =  0.00000000
alpha( 2) =  0.00000000
atom    1   Tr[ns(na)] (up, down, total) =   4.87292  2.58896  7.46188
   spin  1
    eigenvalues: 
  0.967  0.967  0.967  0.986  0.986
    eigenvectors:
  0.000  0.000  0.000  0.501  0.499
  0.071  0.448  0.481  0.000  0.000
  0.337  0.215  0.449  0.000  0.000
  0.000  0.000  0.000  0.499  0.501
  0.592  0.337  0.070  0.000  0.000
    occupations:
  0.986  0.000  0.000  0.000  0.000
  0.000  0.967  0.000  0.000  0.000
  0.000  0.000  0.967  0.000  0.000
  0.000  0.000  0.000  0.986  0.000
  0.000  0.000  0.000  0.000  0.967
   spin  2
    eigenvalues: 
  0.429  0.429  0.577  0.577  0.577
    eigenvectors:
  0.504  0.496  0.000  0.000  0.000
  0.000  0.000  0.076  0.501  0.423
  0.000  0.000  0.355  0.164  0.481
  0.496  0.504  0.000  0.000  0.000
  0.000  0.000  0.569  0.335  0.096
    occupations:
  0.429  0.000  0.000  0.000  0.000
  0.000  0.577  0.000  0.000  0.000
  0.000  0.000  0.577  0.000  0.000
  0.000  0.000  0.000  0.429  0.000
  0.000  0.000  0.000  0.000  0.577
atomic mag. moment =     2.283961
atom    2   Tr[ns(na)] (up, down, total) =   4.88022  2.71027  7.59048
   spin  1
    eigenvalues: 
  0.969  0.969  0.969  0.987  0.987
    eigenvectors:
  0.000  0.000  0.000  0.606  0.394
  0.073  0.442  0.485  0.000  0.000
  0.346  0.211  0.444  0.000  0.000
  0.000  0.000  0.000  0.394  0.606
  0.582  0.347  0.071  0.000  0.000
    occupations:
  0.987  0.000  0.000  0.000  0.000
  0.000  0.969  0.000  0.000  0.000
  0.000  0.000  0.969  0.000  0.000
  0.000  0.000  0.000  0.987  0.000
  0.000  0.000  0.000  0.000  0.969
   spin  2
    eigenvalues: 
  0.453  0.453  0.602  0.602  0.602
    eigenvectors:
  0.436  0.564  0.000  0.000  0.000
  0.000  0.000  0.069  0.405  0.526
  0.000  0.000  0.345  0.241  0.414
  0.564  0.436  0.000  0.000  0.000
  0.000  0.000  0.586  0.354  0.060
    occupations:
  0.453  0.000  0.000  0.000  0.000
  0.000  0.602  0.000  0.000  0.000
  0.000  0.000  0.602  0.000  0.000
  0.000  0.000  0.000  0.453  0.000
  0.000  0.000  0.000  0.000  0.602
atomic mag. moment =     2.169948
N of occupied +U levels =   15.052361
 --- exit write_ns ---
 --- in v_hubbard ---
Hubbard energy    0.0550
 -------
 
     Magnetic moment per site:
     atom:    1    charge:    6.4402    magn:    2.5259    constr:    0.0000
     atom:    2    charge:    6.5200    magn:    2.4608    constr:    0.0000

     total cpu time spent up to now is        2.1 secs

     total energy              =    -111.54605450 Ry
     Harris-Foulkes estimate   =    -111.54857048 Ry
     estimated scf accuracy    <       0.00315492 Ry

     total magnetization       =     4.84 Bohr mag/cell
     absolute magnetization    =     5.17 Bohr mag/cell

     iteration #  2     ecut=    30.00 Ry     beta=0.70
     Davidson diagonalization with overlap
     ethr =  1.97E-05,  avg # of iterations =  2.9
 --- enter write_ns ---
 LDA+U parameters:
U( 1)     =  0.00000000
alpha( 1) =  0.10000000
U( 2)     =  0.00000000
alpha( 2) =  0.00000000
atom    1   Tr[ns(na)] (up, down, total) =   4.90900  3.06950  7.97849
   spin  1
    eigenvalues: 
  0.972  0.972  0.972  0.996  0.996
    eigenvectors:
  0.000  0.000  0.000  0.573  0.427
  0.077  0.485  0.438  0.000  0.000
  0.358  0.171  0.471  0.000  0.000
  0.000  0.000  0.000  0.427  0.573
  0.566  0.343  0.091  0.000  0.000
    occupations:
  0.996  0.000  0.000  0.000  0.000
  0.000  0.972  0.000  0.000  0.000
  0.000  0.000  0.972  0.000  0.000
  0.000  0.000  0.000  0.996  0.000
  0.000  0.000  0.000  0.000  0.972
   spin  2
    eigenvalues: 
  0.511  0.511  0.682  0.682  0.682
    eigenvectors:
  0.605  0.395  0.000  0.000  0.000
  0.000  0.000  0.070  0.412  0.518
  0.000  0.000  0.339  0.239  0.422
  0.395  0.605  0.000  0.000  0.000
  0.000  0.000  0.591  0.349  0.060
    occupations:
  0.511  0.000  0.000  0.000  0.000
  0.000  0.682  0.000  0.000  0.000
  0.000  0.000  0.682  0.000  0.000
  0.000  0.000  0.000  0.511  0.000
  0.000  0.000  0.000  0.000  0.682
atomic mag. moment =     1.839501
atom    2   Tr[ns(na)] (up, down, total) =   4.79366  2.26591  7.05957
   spin  1
    eigenvalues: 
  0.945  0.945  0.945  0.979  0.979
    eigenvectors:
  0.000  0.000  0.000  0.608  0.392
  0.076  0.565  0.359  0.000  0.000
  0.326  0.139  0.535  0.000  0.000
  0.000  0.000  0.000  0.392  0.608
  0.598  0.296  0.106  0.000  0.000
    occupations:
  0.979  0.000  0.000  0.000  0.000
  0.000  0.945  0.000  0.000  0.000
  0.000  0.000  0.945  0.000  0.000
  0.000  0.000  0.000  0.979  0.000
  0.000  0.000  0.000  0.000  0.945
   spin  2
    eigenvalues: 
  0.373  0.373  0.506  0.506  0.506
    eigenvectors:
  0.670  0.330  0.000  0.000  0.000
  0.000  0.000  0.064  0.331  0.604
  0.000  0.000  0.328  0.311  0.360
  0.330  0.670  0.000  0.000  0.000
  0.000  0.000  0.607  0.357  0.035
    occupations:
  0.373  0.000  0.000  0.000  0.000
  0.000  0.506  0.000  0.000  0.000
  0.000  0.000  0.506  0.000  0.000
  0.000  0.000  0.000  0.373  0.000
  0.000  0.000  0.000  0.000  0.506
atomic mag. moment =     2.527757
N of occupied +U levels =   15.038066
 --- exit write_ns ---
 --- in v_hubbard ---
Hubbard energy    0.0552
 -------
 
     Magnetic moment per site:
     atom:    1    charge:    6.4758    magn:    2.5049    constr:    0.0000
     atom:    2    charge:    6.4848    magn:    2.4759    constr:    0.0000

     total cpu time spent up to now is        2.9 secs

     total energy              =    -111.53184411 Ry
     Harris-Foulkes estimate   =    -111.56519428 Ry
     estimated scf accuracy    <       0.28024114 Ry

     total magnetization       =     4.76 Bohr mag/cell
     absolute magnetization    =     5.08 Bohr mag/cell

     iteration #  3     ecut=    30.00 Ry     beta=0.70
     Davidson diagonalization with overlap
     ethr =  1.97E-05,  avg # of iterations =  2.7
 --- enter write_ns ---
 LDA+U parameters:
U( 1)     =  0.00000000
alpha( 1) =  0.10000000
U( 2)     =  0.00000000
alpha( 2) =  0.00000000
atom    1   Tr[ns(na)] (up, down, total) =   4.88174  2.62190  7.50364
   spin  1
    eigenvalues: 
  0.969  0.969  0.969  0.987  0.987
    eigenvectors:
  0.000  0.000  0.000  0.703  0.297
  0.069  0.348  0.583  0.000  0.000
  0.344  0.281  0.374  0.000  0.000
  0.000  0.000  0.000  0.297  0.703
  0.587  0.371  0.043  0.000  0.000
    occupations:
  0.987  0.000  0.000  0.000  0.000
  0.000  0.969  0.000  0.000  0.000
  0.000  0.000  0.969  0.000  0.000
  0.000  0.000  0.000  0.987  0.000
  0.000  0.000  0.000  0.000  0.969
   spin  2
    eigenvalues: 
  0.434  0.434  0.584  0.584  0.584
    eigenvectors:
  0.631  0.369  0.000  0.000  0.000
  0.000  0.000  0.076  0.523  0.402
  0.000  0.000  0.351  0.153  0.496
  0.369  0.631  0.000  0.000  0.000
  0.000  0.000  0.573  0.324  0.103
    occupations:
  0.434  0.000  0.000  0.000  0.000
  0.000  0.584  0.000  0.000  0.000
  0.000  0.000  0.584  0.000  0.000
  0.000  0.000  0.000  0.434  0.000
  0.000  0.000  0.000  0.000  0.584
atomic mag. moment =     2.259847
atom    2   Tr[ns(na)] (up, down, total) =   4.87874  2.67871  7.55745
   spin  1
    eigenvalues: 
  0.968  0.968  0.968  0.987  0.987
    eigenvectors:
  0.000  0.000  0.000  0.668  0.332
  0.068  0.359  0.573  0.000  0.000
  0.345  0.274  0.380  0.000  0.000
  0.000  0.000  0.000  0.332  0.668
  0.587  0.367  0.046  0.000  0.000
    occupations:
  0.987  0.000  0.000  0.000  0.000
  0.000  0.968  0.000  0.000  0.000
  0.000  0.000  0.968  0.000  0.000
  0.000  0.000  0.000  0.987  0.000
  0.000  0.000  0.000  0.000  0.968
   spin  2
    eigenvalues: 
  0.447  0.447  0.595  0.595  0.595
    eigenvectors:
  0.712  0.288  0.000  0.000  0.000
  0.000  0.000  0.069  0.403  0.528
  0.000  0.000  0.328  0.254  0.418
  0.288  0.712  0.000  0.000  0.000
  0.000  0.000  0.603  0.344  0.053
    occupations:
  0.447  0.000  0.000  0.000  0.000
  0.000  0.595  0.000  0.000  0.000
  0.000  0.000  0.595  0.000  0.000
  0.000  0.000  0.000  0.447  0.000
  0.000  0.000  0.000  0.000  0.595
atomic mag. moment =     2.200031
N of occupied +U levels =   15.061092
 --- exit write_ns ---
 --- in v_hubbard ---
Hubbard energy    0.0552
 -------
 
     Magnetic moment per site:
     atom:    1    charge:    6.4768    magn:    2.5103    constr:    0.0000
     atom:    2    charge:    6.4863    magn:    2.4755    constr:    0.0000

     total cpu time spent up to now is        3.7 secs

     total energy              =    -111.54838459 Ry
     Harris-Foulkes estimate   =    -111.54835298 Ry
     estimated scf accuracy    <       0.00017806 Ry

     total magnetization       =     4.85 Bohr mag/cell
     absolute magnetization    =     5.18 Bohr mag/cell

     iteration #  4     ecut=    30.00 Ry     beta=0.70
     Davidson diagonalization with overlap
     ethr =  1.11E-06,  avg # of iterations =  1.4
 --- enter write_ns ---
 LDA+U parameters:
U( 1)     =  0.00000000
alpha( 1) =  0.10000000
U( 2)     =  0.00000000
alpha( 2) =  0.00000000
atom    1   Tr[ns(na)] (up, down, total) =   4.88079  2.62197  7.50276
   spin  1
    eigenvalues: 
  0.969  0.969  0.969  0.987  0.987
    eigenvectors:
  0.000  0.000  0.000  0.558  0.442
  0.066  0.270  0.664  0.000  0.000
  0.358  0.332  0.310  0.000  0.000
  0.000  0.000  0.000  0.442  0.558
  0.576  0.398  0.027  0.000  0.000
    occupations:
  0.987  0.000  0.000  0.000  0.000
  0.000  0.969  0.000  0.000  0.000
  0.000  0.000  0.969  0.000  0.000
  0.000  0.000  0.000  0.987  0.000
  0.000  0.000  0.000  0.000  0.969
   spin  2
    eigenvalues: 
  0.435  0.435  0.584  0.584  0.584
    eigenvectors:
  0.677  0.323  0.000  0.000  0.000
  0.000  0.000  0.072  0.464  0.465
  0.000  0.000  0.342  0.200  0.458
  0.323  0.677  0.000  0.000  0.000
  0.000  0.000  0.587  0.336  0.077
    occupations:
  0.435  0.000  0.000  0.000  0.000
  0.000  0.584  0.000  0.000  0.000
  0.000  0.000  0.584  0.000  0.000
  0.000  0.000  0.000  0.435  0.000
  0.000  0.000  0.000  0.000  0.584
atomic mag. moment =     2.258817
atom    2   Tr[ns(na)] (up, down, total) =   4.87673  2.67612  7.55285
   spin  1
    eigenvalues: 
  0.968  0.968  0.968  0.986  0.986
    eigenvectors:
  0.000  0.000  0.000  0.539  0.461
  0.077  0.522  0.401  0.000  0.000
  0.340  0.158  0.502  0.000  0.000
  0.000  0.000  0.000  0.461  0.539
  0.583  0.320  0.097  0.000  0.000
    occupations:
  0.986  0.000  0.000  0.000  0.000
  0.000  0.968  0.000  0.000  0.000
  0.000  0.000  0.968  0.000  0.000
  0.000  0.000  0.000  0.986  0.000
  0.000  0.000  0.000  0.000  0.968
   spin  2
    eigenvalues: 
  0.447  0.447  0.594  0.594  0.594
    eigenvectors:
  0.708  0.292  0.000  0.000  0.000
  0.000  0.000  0.069  0.678  0.253
  0.000  0.000  0.333  0.081  0.587
  0.292  0.708  0.000  0.000  0.000
  0.000  0.000  0.598  0.242  0.160
    occupations:
  0.447  0.000  0.000  0.000  0.000
  0.000  0.594  0.000  0.000  0.000
  0.000  0.000  0.594  0.000  0.000
  0.000  0.000  0.000  0.447  0.000
  0.000  0.000  0.000  0.000  0.594
atomic mag. moment =     2.200613
N of occupied +U levels =   15.055606
 --- exit write_ns ---
 --- in v_hubbard ---
Hubbard energy    0.0552
 -------
 
     Magnetic moment per site:
     atom:    1    charge:    6.4756    magn:    2.5243    constr:    0.0000
     atom:    2    charge:    6.4873    magn:    2.4720    constr:    0.0000

     total cpu time spent up to now is        4.4 secs

     total energy              =    -111.54839880 Ry
     Harris-Foulkes estimate   =    -111.54839684 Ry
     estimated scf accuracy    <       0.00007895 Ry

     total magnetization       =     4.85 Bohr mag/cell
     absolute magnetization    =     5.18 Bohr mag/cell

     iteration #  5     ecut=    30.00 Ry     beta=0.70
     Davidson diagonalization with overlap
     ethr =  4.93E-07,  avg # of iterations =  1.0
 --- enter write_ns ---
 LDA+U parameters:
U( 1)     =  0.00000000
alpha( 1) =  0.10000000
U( 2)     =  0.00000000
alpha( 2) =  0.00000000
atom    1   Tr[ns(na)] (up, down, total) =   4.88372  2.62232  7.50604
   spin  1
    eigenvalues: 
  0.969  0.969  0.969  0.988  0.988
    eigenvectors:
  0.000  0.000  0.000  0.658  0.342
  0.075  0.475  0.450  0.000  0.000
  0.347  0.186  0.467  0.000  0.000
  0.000  0.000  0.000  0.342  0.658
  0.578  0.339  0.083  0.000  0.000
    occupations:
  0.988  0.000  0.000  0.000  0.000
  0.000  0.969  0.000  0.000  0.000
  0.000  0.000  0.969  0.000  0.000
  0.000  0.000  0.000  0.988  0.000
  0.000  0.000  0.000  0.000  0.969
   spin  2
    eigenvalues: 
  0.435  0.435  0.584  0.584  0.584
    eigenvectors:
  0.563  0.437  0.000  0.000  0.000
  0.000  0.000  0.067  0.387  0.546
  0.000  0.000  0.345  0.256  0.399
  0.437  0.563  0.000  0.000  0.000
  0.000  0.000  0.589  0.356  0.055
    occupations:
  0.435  0.000  0.000  0.000  0.000
  0.000  0.584  0.000  0.000  0.000
  0.000  0.000  0.584  0.000  0.000
  0.000  0.000  0.000  0.435  0.000
  0.000  0.000  0.000  0.000  0.584
atomic mag. moment =     2.261398
atom    2   Tr[ns(na)] (up, down, total) =   4.87706  2.67191  7.54896
   spin  1
    eigenvalues: 
  0.968  0.968  0.968  0.986  0.986
    eigenvectors:
  0.000  0.000  0.000  0.612  0.388
  0.068  0.441  0.491  0.000  0.000
  0.339  0.221  0.439  0.000  0.000
  0.000  0.000  0.000  0.388  0.612
  0.592  0.338  0.070  0.000  0.000
    occupations:
  0.986  0.000  0.000  0.000  0.000
  0.000  0.968  0.000  0.000  0.000
  0.000  0.000  0.968  0.000  0.000
  0.000  0.000  0.000  0.986  0.000
  0.000  0.000  0.000  0.000  0.968
   spin  2
    eigenvalues: 
  0.447  0.447  0.593  0.593  0.593
    eigenvectors:
  0.708  0.292  0.000  0.000  0.000
  0.000  0.000  0.071  0.515  0.415
  0.000  0.000  0.320  0.180  0.499
  0.292  0.708  0.000  0.000  0.000
  0.000  0.000  0.609  0.305  0.086
    occupations:
  0.447  0.000  0.000  0.000  0.000
  0.000  0.593  0.000  0.000  0.000
  0.000  0.000  0.593  0.000  0.000
  0.000  0.000  0.000  0.447  0.000
  0.000  0.000  0.000  0.000  0.593
atomic mag. moment =     2.205148
N of occupied +U levels =   15.055005
 --- exit write_ns ---
 --- in v_hubbard ---
Hubbard energy    0.0552
 -------
 
     Magnetic moment per site:
     atom:    1    charge:    6.4750    magn:    2.5351    constr:    0.0000
     atom:    2    charge:    6.4875    magn:    2.4729    constr:    0.0000

     total cpu time spent up to now is        5.0 secs

     total energy              =    -111.54840455 Ry
     Harris-Foulkes estimate   =    -111.54840426 Ry
     estimated scf accuracy    <       0.00000838 Ry

     total magnetization       =     4.85 Bohr mag/cell
     absolute magnetization    =     5.19 Bohr mag/cell

     iteration #  6     ecut=    30.00 Ry     beta=0.70
     Davidson diagonalization with overlap
     ethr =  5.24E-08,  avg # of iterations =  1.7
 --- enter write_ns ---
 LDA+U parameters:
U( 1)     =  0.00000000
alpha( 1) =  0.10000000
U( 2)     =  0.00000000
alpha( 2) =  0.00000000
atom    1   Tr[ns(na)] (up, down, total) =   4.88571  2.62052  7.50623
   spin  1
    eigenvalues: 
  0.970  0.970  0.970  0.988  0.988
    eigenvectors:
  0.000  0.000  0.000  0.410  0.590
  0.072  0.317  0.611  0.000  0.000
  0.369  0.282  0.349  0.000  0.000
  0.000  0.000  0.000  0.590  0.410
  0.560  0.400  0.040  0.000  0.000
    occupations:
  0.988  0.000  0.000  0.000  0.000
  0.000  0.970  0.000  0.000  0.000
  0.000  0.000  0.970  0.000  0.000
  0.000  0.000  0.000  0.988  0.000
  0.000  0.000  0.000  0.000  0.970
   spin  2
    eigenvalues: 
  0.435  0.435  0.583  0.583  0.583
    eigenvectors:
  0.446  0.554  0.000  0.000  0.000
  0.000  0.000  0.073  0.441  0.486
  0.000  0.000  0.335  0.218  0.447
  0.554  0.446  0.000  0.000  0.000
  0.000  0.000  0.592  0.341  0.067
    occupations:
  0.435  0.000  0.000  0.000  0.000
  0.000  0.583  0.000  0.000  0.000
  0.000  0.000  0.583  0.000  0.000
  0.000  0.000  0.000  0.435  0.000
  0.000  0.000  0.000  0.000  0.583
atomic mag. moment =     2.265190
atom    2   Tr[ns(na)] (up, down, total) =   4.87778  2.66938  7.54716
   spin  1
    eigenvalues: 
  0.968  0.968  0.968  0.986  0.986
    eigenvectors:
  0.000  0.000  0.000  0.629  0.371
  0.068  0.418  0.513  0.000  0.000
  0.338  0.237  0.425  0.000  0.000
  0.000  0.000  0.000  0.371  0.629
  0.594  0.345  0.062  0.000  0.000
    occupations:
  0.986  0.000  0.000  0.000  0.000
  0.000  0.968  0.000  0.000  0.000
  0.000  0.000  0.968  0.000  0.000
  0.000  0.000  0.000  0.986  0.000
  0.000  0.000  0.000  0.000  0.968
   spin  2
    eigenvalues: 
  0.447  0.447  0.592  0.592  0.592
    eigenvectors:
  0.429  0.571  0.000  0.000  0.000
  0.000  0.000  0.071  0.373  0.556
  0.000  0.000  0.355  0.254  0.392
  0.571  0.429  0.000  0.000  0.000
  0.000  0.000  0.574  0.373  0.053
    occupations:
  0.447  0.000  0.000  0.000  0.000
  0.000  0.592  0.000  0.000  0.000
  0.000  0.000  0.592  0.000  0.000
  0.000  0.000  0.000  0.447  0.000
  0.000  0.000  0.000  0.000  0.592
atomic mag. moment =     2.208391
N of occupied +U levels =   15.053387
 --- exit write_ns ---
 --- in v_hubbard ---
Hubbard energy    0.0552
 -------
 
     Magnetic moment per site:
     atom:    1    charge:    6.4749    magn:    2.5399    constr:    0.0000
     atom:    2    charge:    6.4875    magn:    2.4760    constr:    0.0000

     total cpu time spent up to now is        5.6 secs

     total energy              =    -111.54840707 Ry
     Harris-Foulkes estimate   =    -111.54840700 Ry
     estimated scf accuracy    <       0.00000039 Ry

     total magnetization       =     4.86 Bohr mag/cell
     absolute magnetization    =     5.20 Bohr mag/cell

     iteration #  7     ecut=    30.00 Ry     beta=0.70
     Davidson diagonalization with overlap
     ethr =  2.44E-09,  avg # of iterations =  3.2
 --- enter write_ns ---
 LDA+U parameters:
U( 1)     =  0.00000000
alpha( 1) =  0.10000000
U( 2)     =  0.00000000
alpha( 2) =  0.00000000
atom    1   Tr[ns(na)] (up, down, total) =   4.88686  2.61898  7.50584
   spin  1
    eigenvalues: 
  0.970  0.970  0.970  0.988  0.988
    eigenvectors:
  0.000  0.000  0.000  0.469  0.531
  0.079  0.534  0.387  0.000  0.000
  0.348  0.145  0.508  0.000  0.000
  0.000  0.000  0.000  0.531  0.469
  0.573  0.321  0.105  0.000  0.000
    occupations:
  0.988  0.000  0.000  0.000  0.000
  0.000  0.970  0.000  0.000  0.000
  0.000  0.000  0.970  0.000  0.000
  0.000  0.000  0.000  0.988  0.000
  0.000  0.000  0.000  0.000  0.970
   spin  2
    eigenvalues: 
  0.435  0.435  0.583  0.583  0.583
    eigenvectors:
  0.555  0.445  0.000  0.000  0.000
  0.000  0.000  0.067  0.440  0.493
  0.000  0.000  0.339  0.223  0.438
  0.445  0.555  0.000  0.000  0.000
  0.000  0.000  0.594  0.336  0.070
    occupations:
  0.435  0.000  0.000  0.000  0.000
  0.000  0.583  0.000  0.000  0.000
  0.000  0.000  0.583  0.000  0.000
  0.000  0.000  0.000  0.435  0.000
  0.000  0.000  0.000  0.000  0.583
atomic mag. moment =     2.267883
atom    2   Tr[ns(na)] (up, down, total) =   4.87876  2.66803  7.54679
   spin  1
    eigenvalues: 
  0.969  0.969  0.969  0.986  0.986
    eigenvectors:
  0.000  0.000  0.000  0.711  0.289
  0.064  0.343  0.593  0.000  0.000
  0.331  0.301  0.368  0.000  0.000
  0.000  0.000  0.000  0.289  0.711
  0.605  0.356  0.039  0.000  0.000
    occupations:
  0.986  0.000  0.000  0.000  0.000
  0.000  0.969  0.000  0.000  0.000
  0.000  0.000  0.969  0.000  0.000
  0.000  0.000  0.000  0.986  0.000
  0.000  0.000  0.000  0.000  0.969
   spin  2
    eigenvalues: 
  0.447  0.447  0.591  0.591  0.591
    eigenvectors:
  0.610  0.390  0.000  0.000  0.000
  0.000  0.000  0.069  0.359  0.572
  0.000  0.000  0.345  0.274  0.381
  0.390  0.610  0.000  0.000  0.000
  0.000  0.000  0.586  0.367  0.046
    occupations:
  0.447  0.000  0.000  0.000  0.000
  0.000  0.591  0.000  0.000  0.000
  0.000  0.000  0.591  0.000  0.000
  0.000  0.000  0.000  0.447  0.000
  0.000  0.000  0.000  0.000  0.591
atomic mag. moment =     2.210727
N of occupied +U levels =   15.052623
 --- exit write_ns ---
 --- in v_hubbard ---
Hubbard energy    0.0552
 -------
 
     Magnetic moment per site:
     atom:    1    charge:    6.4749    magn:    2.5410    constr:    0.0000
     atom:    2    charge:    6.4875    magn:    2.4783    constr:    0.0000

     total cpu time spent up to now is        6.4 secs

     total energy              =    -111.54840792 Ry
     Harris-Foulkes estimate   =    -111.54840788 Ry
     estimated scf accuracy    <       0.00000009 Ry

     total magnetization       =     4.87 Bohr mag/cell
     absolute magnetization    =     5.20 Bohr mag/cell

     iteration #  8     ecut=    30.00 Ry     beta=0.70
     Davidson diagonalization with overlap
     ethr =  5.32E-10,  avg # of iterations =  2.3
 --- enter write_ns ---
 LDA+U parameters:
U( 1)     =  0.00000000
alpha( 1) =  0.10000000
U( 2)     =  0.00000000
alpha( 2) =  0.00000000
atom    1   Tr[ns(na)] (up, down, total) =   4.88721  2.61857  7.50578
   spin  1
    eigenvalues: 
  0.971  0.971  0.971  0.988  0.988
    eigenvectors:
  0.000  0.000  0.000  0.518  0.482
  0.076  0.467  0.457  0.000  0.000
  0.354  0.186  0.460  0.000  0.000
  0.000  0.000  0.000  0.482  0.518
  0.570  0.347  0.083  0.000  0.000
    occupations:
  0.988  0.000  0.000  0.000  0.000
  0.000  0.971  0.000  0.000  0.000
  0.000  0.000  0.971  0.000  0.000
  0.000  0.000  0.000  0.988  0.000
  0.000  0.000  0.000  0.000  0.971
   spin  2
    eigenvalues: 
  0.435  0.435  0.583  0.583  0.583
    eigenvectors:
  0.614  0.386  0.000  0.000  0.000
  0.000  0.000  0.068  0.336  0.595
  0.000  0.000  0.344  0.291  0.365
  0.386  0.614  0.000  0.000  0.000
  0.000  0.000  0.587  0.373  0.040
    occupations:
  0.435  0.000  0.000  0.000  0.000
  0.000  0.583  0.000  0.000  0.000
  0.000  0.000  0.583  0.000  0.000
  0.000  0.000  0.000  0.435  0.000
  0.000  0.000  0.000  0.000  0.583
atomic mag. moment =     2.268643
atom    2   Tr[ns(na)] (up, down, total) =   4.87922  2.66722  7.54644
   spin  1
    eigenvalues: 
  0.969  0.969  0.969  0.986  0.986
    eigenvectors:
  0.000  0.000  0.000  0.591  0.409
  0.076  0.498  0.426  0.000  0.000
  0.344  0.172  0.484  0.000  0.000
  0.000  0.000  0.000  0.409  0.591
  0.580  0.330  0.090  0.000  0.000
    occupations:
  0.986  0.000  0.000  0.000  0.000
  0.000  0.969  0.000  0.000  0.000
  0.000  0.000  0.969  0.000  0.000
  0.000  0.000  0.000  0.986  0.000
  0.000  0.000  0.000  0.000  0.969
   spin  2
    eigenvalues: 
  0.447  0.447  0.591  0.591  0.591
    eigenvectors:
  0.733  0.267  0.000  0.000  0.000
  0.000  0.000  0.064  0.257  0.679
  0.000  0.000  0.331  0.367  0.302
  0.267  0.733  0.000  0.000  0.000
  0.000  0.000  0.605  0.376  0.019
    occupations:
  0.447  0.000  0.000  0.000  0.000
  0.000  0.591  0.000  0.000  0.000
  0.000  0.000  0.591  0.000  0.000
  0.000  0.000  0.000  0.447  0.000
  0.000  0.000  0.000  0.000  0.591
atomic mag. moment =     2.211996
N of occupied +U levels =   15.052226
 --- exit write_ns ---
 --- in v_hubbard ---
Hubbard energy    0.0552
 -------
 
     Magnetic moment per site:
     atom:    1    charge:    6.4750    magn:    2.5420    constr:    0.0000
     atom:    2    charge:    6.4876    magn:    2.4794    constr:    0.0000

     total cpu time spent up to now is        7.2 secs

     total energy              =    -111.54840802 Ry
     Harris-Foulkes estimate   =    -111.54840805 Ry
     estimated scf accuracy    <       0.00000001 Ry

     total magnetization       =     4.87 Bohr mag/cell
     absolute magnetization    =     5.21 Bohr mag/cell

     iteration #  9     ecut=    30.00 Ry     beta=0.70
     Davidson diagonalization with overlap
     ethr =  6.70E-11,  avg # of iterations =  3.5
 --- enter write_ns ---
 LDA+U parameters:
U( 1)     =  0.00000000
alpha( 1) =  0.10000000
U( 2)     =  0.00000000
alpha( 2) =  0.00000000
atom    1   Tr[ns(na)] (up, down, total) =   4.88748  2.61821  7.50570
   spin  1
    eigenvalues: 
  0.971  0.971  0.971  0.988  0.988
    eigenvectors:
  0.000  0.000  0.000  0.688  0.312
  0.062  0.295  0.643  0.000  0.000
  0.329  0.341  0.330  0.000  0.000
  0.000  0.000  0.000  0.312  0.688
  0.609  0.364  0.028  0.000  0.000
    occupations:
  0.988  0.000  0.000  0.000  0.000
  0.000  0.971  0.000  0.000  0.000
  0.000  0.000  0.971  0.000  0.000
  0.000  0.000  0.000  0.988  0.000
  0.000  0.000  0.000  0.000  0.971
   spin  2
    eigenvalues: 
  0.435  0.435  0.583  0.583  0.583
    eigenvectors:
  0.472  0.528  0.000  0.000  0.000
  0.000  0.000  0.073  0.451  0.476
  0.000  0.000  0.346  0.204  0.450
  0.528  0.472  0.000  0.000  0.000
  0.000  0.000  0.580  0.346  0.074
    occupations:
  0.435  0.000  0.000  0.000  0.000
  0.000  0.583  0.000  0.000  0.000
  0.000  0.000  0.583  0.000  0.000
  0.000  0.000  0.000  0.435  0.000
  0.000  0.000  0.000  0.000  0.583
atomic mag. moment =     2.269269
atom    2   Tr[ns(na)] (up, down, total) =   4.87951  2.66678  7.54629
   spin  1
    eigenvalues: 
  0.969  0.969  0.969  0.986  0.986
    eigenvectors:
  0.000  0.000  0.000  0.617  0.383
  0.067  0.350  0.584  0.000  0.000
  0.343  0.284  0.373  0.000  0.000
  0.000  0.000  0.000  0.383  0.617
  0.591  0.366  0.044  0.000  0.000
    occupations:
  0.986  0.000  0.000  0.000  0.000
  0.000  0.969  0.000  0.000  0.000
  0.000  0.000  0.969  0.000  0.000
  0.000  0.000  0.000  0.986  0.000
  0.000  0.000  0.000  0.000  0.969
   spin  2
    eigenvalues: 
  0.447  0.447  0.591  0.591  0.591
    eigenvectors:
  0.582  0.418  0.000  0.000  0.000
  0.000  0.000  0.074  0.585  0.341
  0.000  0.000  0.335  0.126  0.540
  0.418  0.582  0.000  0.000  0.000
  0.000  0.000  0.591  0.289  0.120
    occupations:
  0.447  0.000  0.000  0.000  0.000
  0.000  0.591  0.000  0.000  0.000
  0.000  0.000  0.591  0.000  0.000
  0.000  0.000  0.000  0.447  0.000
  0.000  0.000  0.000  0.000  0.591
atomic mag. moment =     2.212723
N of occupied +U levels =   15.051986
 --- exit write_ns ---
 --- in v_hubbard ---
Hubbard energy    0.0552
 -------
 
     Magnetic moment per site:
     atom:    1    charge:    6.4750    magn:    2.5419    constr:    0.0000
     atom:    2    charge:    6.4876    magn:    2.4794    constr:    0.0000

     total cpu time spent up to now is        8.0 secs

     total energy              =    -111.54840809 Ry
     Harris-Foulkes estimate   =    -111.54840808 Ry
     estimated scf accuracy    <          2.1E-09 Ry

     total magnetization       =     4.87 Bohr mag/cell
     absolute magnetization    =     5.21 Bohr mag/cell

     iteration # 10     ecut=    30.00 Ry     beta=0.70
     Davidson diagonalization with overlap
     ethr =  1.34E-11,  avg # of iterations =  2.6
 --- enter write_ns ---
 LDA+U parameters:
U( 1)     =  0.00000000
alpha( 1) =  0.10000000
U( 2)     =  0.00000000
alpha( 2) =  0.00000000
atom    1   Tr[ns(na)] (up, down, total) =   4.88745  2.61823  7.50568
   spin  1
    eigenvalues: 
  0.971  0.971  0.971  0.988  0.988
    eigenvectors:
  0.000  0.000  0.000  0.602  0.398
  0.062  0.327  0.611  0.000  0.000
  0.320  0.324  0.356  0.000  0.000
  0.000  0.000  0.000  0.398  0.602
  0.618  0.349  0.033  0.000  0.000
    occupations:
  0.988  0.000  0.000  0.000  0.000
  0.000  0.971  0.000  0.000  0.000
  0.000  0.000  0.971  0.000  0.000
  0.000  0.000  0.000  0.988  0.000
  0.000  0.000  0.000  0.000  0.971
   spin  2
    eigenvalues: 
  0.435  0.435  0.583  0.583  0.583
    eigenvectors:
  0.669  0.331  0.000  0.000  0.000
  0.000  0.000  0.071  0.325  0.604
  0.000  0.000  0.343  0.297  0.360
  0.331  0.669  0.000  0.000  0.000
  0.000  0.000  0.586  0.378  0.036
    occupations:
  0.435  0.000  0.000  0.000  0.000
  0.000  0.583  0.000  0.000  0.000
  0.000  0.000  0.583  0.000  0.000
  0.000  0.000  0.000  0.435  0.000
  0.000  0.000  0.000  0.000  0.583
atomic mag. moment =     2.269220
atom    2   Tr[ns(na)] (up, down, total) =   4.87950  2.66682  7.54631
   spin  1
    eigenvalues: 
  0.969  0.969  0.969  0.986  0.986
    eigenvectors:
  0.000  0.000  0.000  0.537  0.463
  0.071  0.406  0.523  0.000  0.000
  0.339  0.242  0.419  0.000  0.000
  0.000  0.000  0.000  0.463  0.537
  0.591  0.352  0.058  0.000  0.000
    occupations:
  0.986  0.000  0.000  0.000  0.000
  0.000  0.969  0.000  0.000  0.000
  0.000  0.000  0.969  0.000  0.000
  0.000  0.000  0.000  0.986  0.000
  0.000  0.000  0.000  0.000  0.969
   spin  2
    eigenvalues: 
  0.447  0.447  0.591  0.591  0.591
    eigenvectors:
  0.516  0.484  0.000  0.000  0.000
  0.000  0.000  0.072  0.385  0.543
  0.000  0.000  0.349  0.249  0.403
  0.484  0.516  0.000  0.000  0.000
  0.000  0.000  0.579  0.367  0.054
    occupations:
  0.447  0.000  0.000  0.000  0.000
  0.000  0.591  0.000  0.000  0.000
  0.000  0.000  0.591  0.000  0.000
  0.000  0.000  0.000  0.447  0.000
  0.000  0.000  0.000  0.000  0.591
atomic mag. moment =     2.212681
N of occupied +U levels =   15.051998
 --- exit write_ns ---
 --- in v_hubbard ---
Hubbard energy    0.0552
 -------
 
     Magnetic moment per site:
     atom:    1    charge:    6.4750    magn:    2.5419    constr:    0.0000
     atom:    2    charge:    6.4875    magn:    2.4794    constr:    0.0000

     total cpu time spent up to now is        8.8 secs

     End of self-consistent calculation

 ------ SPIN UP ------------


          k = 0.0000 0.0000 0.0000 (   461 PWs)   bands (ev):

     4.7384   8.2548   8.2548  10.5535  10.5535  10.5535  11.7369  11.7369
    12.8177  12.8177  12.8177  22.6878  22.6878  22.6878

     occupation numbers 
     1.0000   1.0000   1.0000   1.0000   1.0000   1.0000   1.0000   1.0000
     0.9929   0.9929   0.9929   0.0000   0.0000   0.0000

          k = 0.0000 0.0000 0.1250 (   449 PWs)   bands (ev):

     5.0541   8.3827   8.3876  10.5551  10.5551  10.6367  11.6042  11.7887
    12.5801  12.5801  12.7281  20.7502  23.2595  23.2595

     occupation numbers 
     1.0000   1.0000   1.0000   1.0000   1.0000   1.0000   1.0000   1.0000
     1.0009   1.0009   1.0290   0.0000   0.0000   0.0000

          k = 0.0000 0.0000 0.2500 (   445 PWs)   bands (ev):

     5.9568   8.6978   8.7503  10.5847  10.5847  10.8731  11.2241  11.9367
    12.0313  12.0313  12.4743  17.6230  24.7985  24.7985

     occupation numbers 
     1.0000   1.0000   1.0000   1.0000   1.0000   1.0000   1.0000   1.0000
     1.0000   1.0000   1.0000   0.0000   0.0000   0.0000

          k = 0.0000 0.0000 0.3750 (   438 PWs)   bands (ev):

     7.2636   8.8946   9.3087  10.6517  10.7076  10.7076  11.2312  11.4449
    11.4449  12.0988  12.2253  14.8442  26.9913  26.9913

     occupation numbers 
     1.0000   1.0000   1.0000   1.0000   1.0000   1.0000   1.0000   1.0000
     1.0000   1.0000   1.0000   0.0000   0.0000   0.0000

          k = 0.0000 0.0000-0.5000 (   466 PWs)   bands (ev):

     8.4507   8.4858   9.9667   9.9867  10.9700  10.9700  11.0018  11.0018
    11.6358  11.6863  12.9574  13.0381  29.5954  29.5957

     occupation numbers 
     1.0000   1.0000   1.0000   1.0000   1.0000   1.0000   1.0000   1.0000
     1.0000   1.0000   0.3223   0.0077   0.0000   0.0000

          k = 0.0000 0.1250 0.1250 (   451 PWs)   bands (ev):

     5.3612   8.4931   8.5292  10.3981  10.5317  10.8730  11.6077  11.7504
    12.1778  12.3476  12.8542  20.8504  21.6437  23.7814

     occupation numbers 
     1.0000   1.0000   1.0000   1.0000   1.0000   1.0000   1.0000   1.0000
     1.0000   1.0000   0.8928   0.0000   0.0000   0.0000

          k = 0.0000 0.1250 0.2500 (   438 PWs)   bands (ev):

     6.2307   8.7693   8.8950  10.3060  10.4951  11.2189  11.3796  11.5734
    11.8420  11.8806  12.7619  17.9647  22.6446  25.2191

     occupation numbers 
     1.0000   1.0000   1.0000   1.0000   1.0000   1.0000   1.0000   1.0000
     1.0000   1.0000   1.0355   0.0000   0.0000   0.0000

          k = 0.0000 0.1250 0.3750 (   440 PWs)   bands (ev):

     7.4542   8.9421   9.3885  10.3514  10.3761  10.9985  11.1541  11.4044
    11.6306  12.1853  12.4701  15.1208  24.4058  27.3210

     occupation numbers 
     1.0000   1.0000   1.0000   1.0000   1.0000   1.0000   1.0000   1.0000
     1.0000   1.0000   1.0000   0.0000   0.0000   0.0000

          k = 0.0000 0.1250-0.5000 (   448 PWs)   bands (ev):

     8.5253   8.5428   9.9375   9.9509  10.5737  10.5818  11.1950  11.2146
    12.0547  12.0787  13.0607  13.1311  26.4641  26.4764

     occupation numbers 
     1.0000   1.0000   1.0000   1.0000   1.0000   1.0000   1.0000   1.0000
     1.0000   1.0000  -0.0223  -0.0280   0.0000   0.0000

          k = 0.0000 0.2500 0.2500 (   441 PWs)   bands (ev):

     6.9636   8.8371   9.3470  10.0367  10.4670  10.9310  11.5136  11.5741
    11.7027  11.7987  12.9432  17.9629  20.4890  26.4269

     occupation numbers 
     1.0000   1.0000   1.0000   1.0000   1.0000   1.0000   1.0000   1.0000
     1.0000   1.0000   0.4067   0.0000   0.0000   0.0000

          k = 0.0000 0.2500 0.3750 (   445 PWs)   bands (ev):

     7.8396   8.7716   9.9059   9.9348  10.3919  10.5931  11.4056  11.5761
    12.0635  12.1767  12.8679  15.6284  21.4144  25.6157

     occupation numbers 
     1.0000   1.0000   1.0000   1.0000   1.0000   1.0000   1.0000   1.0000
     1.0000   1.0000   0.8369   0.0000   0.0000   0.0000

          k = 0.0000 0.2500-0.5000 (   446 PWs)   bands (ev):

     8.4541   8.4674  10.0485  10.0495  10.3805  10.3955  11.5262  11.5295
    12.5822  12.5925  13.3169  13.3618  23.2861  23.2927

     occupation numbers 
     1.0000   1.0000   1.0000   1.0000   1.0000   1.0000   1.0000   1.0000
     1.0010   1.0013  -0.0002   0.0000   0.0000   0.0000

          k = 0.0000 0.3750 0.3750 (   442 PWs)   bands (ev):

     8.0899   8.4877   9.6923   9.9254  10.6650  11.5004  11.5506  11.8703
    11.9115  12.6399  13.0326  15.2793  20.0037  22.9082

     occupation numbers 
     1.0000   1.0000   1.0000   1.0000   1.0000   1.0000   1.0000   1.0000
     1.0000   1.0053   0.0186   0.0000   0.0000   0.0000

          k = 0.0000 0.3750-0.5000 (   436 PWs)   bands (ev):

     8.2436   8.2697   9.6834   9.6835  11.3031  11.3423  11.7178  11.7409
    12.9434  12.9461  13.5354  13.5532  20.8705  20.8718

     occupation numbers 
     1.0000   1.0000   1.0000   1.0000   1.0000   1.0000   1.0000   1.0000
     0.4054   0.3893   0.0000   0.0000   0.0000   0.0000

          k = 0.0000-0.5000-0.5000 (   428 PWs)   bands (ev):

     8.1514   8.1805   9.5545   9.5545  11.7673  11.7956  11.8758  11.9380
    13.0703  13.0703  13.5674  13.5674  19.8900  19.8965

     occupation numbers 
     1.0000   1.0000   1.0000   1.0000   1.0000   1.0000   1.0000   1.0000
    -0.0292  -0.0292   0.0000   0.0000   0.0000   0.0000

          k = 0.1250 0.1250 0.1250 (   446 PWs)   bands (ev):

     5.6617   8.6345   8.6345  10.3659  10.3659  11.1197  11.6734  11.6734
    11.6758  12.6185  12.6185  21.3469  21.3469  22.4027

     occupation numbers 
     1.0000   1.0000   1.0000   1.0000   1.0000   1.0000   1.0000   1.0000
     1.0000   1.0030   1.0030   0.0000   0.0000   0.0000

          k = 0.1250 0.1250 0.2500 (   438 PWs)   bands (ev):

     6.5050   8.9310   8.9538  10.2330  10.2779  11.0574  11.4710  11.5413
    11.8407  12.0945  12.6643  18.3392  22.6363  23.3131

     occupation numbers 
     1.0000   1.0000   1.0000   1.0000   1.0000   1.0000   1.0000   1.0000
     1.0000   1.0000   1.0097   0.0000   0.0000   0.0000

          k = 0.1250 0.1250 0.3750 (   443 PWs)   bands (ev):

     7.6615   9.0926   9.3570  10.1187  10.3048  10.6583  11.2632  11.5795
    11.9127  12.2564  12.4696  15.4733  24.3819  24.9496

     occupation numbers 
     1.0000   1.0000   1.0000   1.0000   1.0000   1.0000   1.0000   1.0000
     1.0000   1.0000   1.0000   0.0000   0.0000   0.0000

          k = 0.1250 0.1250-0.5000 (   448 PWs)   bands (ev):

     8.6504   8.6552   9.7963   9.8067  10.5065  10.5108  11.2636  11.2764
    12.1487  12.1843  13.3525  13.3995  26.3659  26.3861

     occupation numbers 
     1.0000   1.0000   1.0000   1.0000   1.0000   1.0000   1.0000   1.0000
     1.0000   1.0000   0.0000   0.0000   0.0000   0.0000

          k = 0.1250 0.2500 0.2500 (   435 PWs)   bands (ev):

     7.2358   9.0222   9.3841   9.9846  10.1951  10.4757  11.6149  11.7864
    11.8722  12.0931  12.6901  18.4945  20.5822  23.9922

     occupation numbers 
     1.0000   1.0000   1.0000   1.0000   1.0000   1.0000   1.0000   1.0000
     1.0000   1.0000   1.0165   0.0000   0.0000   0.0000

          k = 0.1250 0.2500 0.3750 (   441 PWs)   bands (ev):

     8.0857   8.9659   9.7779   9.8635  10.2419  10.3195  11.5630  11.6015
    11.9536  12.6034  12.7740  16.1546  21.5682  25.4427

     occupation numbers 
     1.0000   1.0000   1.0000   1.0000   1.0000   1.0000   1.0000   1.0000
     1.0000   1.0019   1.0340   0.0000   0.0000   0.0000

          k = 0.1250 0.2500-0.5000 (   440 PWs)   bands (ev):

     8.6481   8.6667   9.8320   9.8372  10.4012  10.4064  11.5456  11.5500
    12.2680  12.3075  13.9873  14.0053  23.4552  23.4631

     occupation numbers 
     1.0000   1.0000   1.0000   1.0000   1.0000   1.0000   1.0000   1.0000
     1.0000   1.0000   0.0000   0.0000   0.0000   0.0000

          k = 0.1250 0.3750 0.3750 (   445 PWs)   bands (ev):

     8.3285   8.6751   9.6570   9.8174  10.5790  11.0015  11.6439  11.7495
    11.8750  12.6281  13.4981  16.0664  20.0670  23.0750

     occupation numbers 
     1.0000   1.0000   1.0000   1.0000   1.0000   1.0000   1.0000   1.0000
     1.0000   1.0039   0.0000   0.0000   0.0000   0.0000

          k = 0.1250 0.3750-0.5000 (   440 PWs)   bands (ev):

     8.4471   8.4745   9.6388   9.6394  11.1354  11.1605  11.7353  11.7582
    12.2670  12.2996  14.6364  14.6396  20.9902  20.9908

     occupation numbers 
     1.0000   1.0000   1.0000   1.0000   1.0000   1.0000   1.0000   1.0000
     1.0000   1.0000   0.0000   0.0000   0.0000   0.0000

          k = 0.1250-0.5000-0.5000 (   444 PWs)   bands (ev):

     8.3549   8.3842   9.5315   9.5315  11.7922  11.8228  11.8805  11.9428
    11.9564  11.9564  14.9667  14.9667  19.9465  19.9530

     occupation numbers 
     1.0000   1.0000   1.0000   1.0000   1.0000   1.0000   1.0000   1.0000
     1.0000   1.0000   0.0000   0.0000   0.0000   0.0000

          k = 0.2500 0.2500 0.2500 (   443 PWs)   bands (ev):

     7.9496   9.4747   9.4747   9.8618   9.8618   9.8866  11.7458  11.7458
    12.2041  12.2041  12.8047  19.8202  19.8202  22.0428

     occupation numbers 
     1.0000   1.0000   1.0000   1.0000   1.0000   1.0000   1.0000   1.0000
     1.0000   1.0000   1.0126   0.0000   0.0000   0.0000

          k = 0.2500 0.2500 0.3750 (   445 PWs)   bands (ev):

     8.6677   9.3204   9.5705   9.7375   9.9334  10.0808  11.6897  11.8321
    11.9064  12.2648  13.6868  17.2341  21.5978  22.8315

     occupation numbers 
     1.0000   1.0000   1.0000   1.0000   1.0000   1.0000   1.0000   1.0000
     1.0000   1.0000   0.0000   0.0000   0.0000   0.0000

          k = 0.2500 0.2500-0.5000 (   442 PWs)   bands (ev):

     8.9844   9.0122   9.6440   9.6520  10.2646  10.2650  11.6741  11.6903
    12.0734  12.1233  15.0608  15.0633  23.6782  23.6860

     occupation numbers 
     1.0000   1.0000   1.0000   1.0000   1.0000   1.0000   1.0000   1.0000
     1.0000   1.0000   0.0000   0.0000   0.0000   0.0000

          k = 0.2500 0.3750 0.3750 (   438 PWs)   bands (ev):

     8.9572   9.0942   9.5892   9.6841  10.2207  10.3103  11.8046  11.8452
    11.8835  12.1571  14.7499  17.6856  20.2329  23.5488

     occupation numbers 
     1.0000   1.0000   1.0000   1.0000   1.0000   1.0000   1.0000   1.0000
     1.0000   1.0000   0.0000   0.0000   0.0000   0.0000

          k = 0.2500 0.3750-0.5000 (   442 PWs)   bands (ev):

     8.9474   8.9745   9.5792   9.5818  10.5780  10.5847  11.8060  11.8382
    11.9746  12.0273  16.1678  16.1703  21.4146  21.4149

     occupation numbers 
     1.0000   1.0000   1.0000   1.0000   1.0000   1.0000   1.0000   1.0000
     1.0000   1.0000   0.0000   0.0000   0.0000   0.0000

          k = 0.2500-0.5000-0.5000 (   436 PWs)   bands (ev):

     8.8811   8.9083   9.4982   9.4982  10.9262  10.9262  11.8496  11.8883
    11.8920  11.9545  16.8480  16.8480  20.1744  20.1811

     occupation numbers 
     1.0000   1.0000   1.0000   1.0000   1.0000   1.0000   1.0000   1.0000
     1.0000   1.0000   0.0000   0.0000   0.0000   0.0000

          k = 0.3750 0.3750 0.3750 (   450 PWs)   bands (ev):

     9.2427   9.5710   9.5710   9.7891   9.9537   9.9537  11.8827  11.8827
    11.9598  11.9598  16.1226  19.6751  19.6751  22.0031

     occupation numbers 
     1.0000   1.0000   1.0000   1.0000   1.0000   1.0000   1.0000   1.0000
     1.0000   1.0000   0.0000   0.0000   0.0000   0.0000

          k = 0.3750 0.3750-0.5000 (   452 PWs)   bands (ev):

     9.3185   9.3333   9.6779   9.6889  10.1329  10.1337  11.8750  11.9170
    11.9223  11.9743  17.7758  17.7798  21.9281  21.9395

     occupation numbers 
     1.0000   1.0000   1.0000   1.0000   1.0000   1.0000   1.0000   1.0000
     1.0000   1.0000   0.0000   0.0000   0.0000   0.0000

          k = 0.3750-0.5000-0.5000 (   440 PWs)   bands (ev):

     9.4695   9.4886   9.5371   9.5371  10.1925  10.1925  11.8955  11.9039
    11.9488  11.9666  18.9772  18.9772  20.7158  20.7253

     occupation numbers 
     1.0000   1.0000   1.0000   1.0000   1.0000   1.0000   1.0000   1.0000
     1.0000   1.0000   0.0000   0.0000   0.0000   0.0000

          k =-0.5000-0.5000-0.5000 (   432 PWs)   bands (ev):

     9.7378   9.7378   9.7378   9.7501   9.7501   9.7501  11.9086  11.9086
    11.9714  11.9714  21.3156  21.3156  21.3156  21.3373

     occupation numbers 
     1.0000   1.0000   1.0000   1.0000   1.0000   1.0000   1.0000   1.0000
     1.0000   1.0000   0.0000   0.0000   0.0000   0.0000

 ------ SPIN DOWN ----------


          k = 0.0000 0.0000 0.0000 (   461 PWs)   bands (ev):

     4.8102  10.3330  10.3330  12.9995  12.9995  12.9995  14.9112  14.9112
    15.6150  15.6150  15.6150  22.8960  22.8960  22.8960

     occupation numbers 
     1.0000   1.0000   1.0000   0.1167   0.1167   0.1167   0.0000   0.0000
     0.0000   0.0000   0.0000   0.0000   0.0000   0.0000

          k = 0.0000 0.0000 0.1250 (   449 PWs)   bands (ev):

     5.1276  10.4259  10.4918  12.9860  12.9860  13.0944  14.7273  14.9801
    15.2740  15.2740  15.5101  21.3032  23.5749  23.5749

     occupation numbers 
     1.0000   1.0000   1.0000   0.1737   0.1737  -0.0355   0.0000   0.0000
     0.0000   0.0000   0.0000   0.0000   0.0000   0.0000

          k = 0.0000 0.0000 0.2500 (   445 PWs)   bands (ev):

     6.0460  10.5456  10.9515  12.9795  12.9795  13.3645  14.2037  14.5519
    14.5519  15.1554  15.2134  18.6767  25.2978  25.2978

     occupation numbers 
     1.0000   1.0000   1.0000   0.2042   0.2042   0.0000   0.0000   0.0000
     0.0000   0.0000   0.0000   0.0000   0.0000   0.0000

          k = 0.0000 0.0000 0.3750 (   438 PWs)   bands (ev):

     7.4428  10.2049  11.6609  13.0696  13.0696  13.4264  13.7755  13.8492
    13.8492  14.7761  15.3808  16.6691  27.6194  27.6194

     occupation numbers 
     1.0000   1.0000   1.0000  -0.0288  -0.0288   0.0000   0.0000   0.0000
     0.0000   0.0000   0.0000   0.0000   0.0000   0.0000

          k = 0.0000 0.0000-0.5000 (   466 PWs)   bands (ev):

     9.0004   9.0478  12.5016  12.5552  13.3258  13.3258  13.3608  13.3608
    14.2599  14.2798  15.7256  15.7306  30.2705  30.2743

     occupation numbers 
     1.0000   1.0000   1.0000   1.0004  -0.0001  -0.0001   0.0000   0.0000
     0.0000   0.0000   0.0000   0.0000   0.0000   0.0000

          k = 0.0000 0.1250 0.1250 (   451 PWs)   bands (ev):

     5.4385  10.5720  10.5887  12.7998  12.9394  13.3579  14.7222  14.7725
    14.9282  14.9439  15.6575  21.5034  22.2909  24.1637

     occupation numbers 
     1.0000   1.0000   1.0000   1.0182   0.4298   0.0000   0.0000   0.0000
     0.0000   0.0000   0.0000   0.0000   0.0000   0.0000

          k = 0.0000 0.1250 0.2500 (   438 PWs)   bands (ev):

     6.3346  10.6912  11.0056  12.6666  12.8446  13.7478  14.0293  14.3141
    14.3768  15.0855  15.5420  19.0580  23.4592  25.7319

     occupation numbers 
     1.0000   1.0000   1.0000   1.0102   0.9260   0.0000   0.0000   0.0000
     0.0000   0.0000   0.0000   0.0000   0.0000   0.0000

          k = 0.0000 0.1250 0.3750 (   440 PWs)   bands (ev):

     7.6843  10.3298  11.6281  12.6802  12.7078  13.3621  13.8826  13.9034
    14.2147  15.1912  15.3314  16.8888  25.2814  27.9392

     occupation numbers 
     1.0000   1.0000   1.0000   1.0136   1.0222   0.0000   0.0000   0.0000
     0.0000   0.0000   0.0000   0.0000   0.0000   0.0000

          k = 0.0000 0.1250-0.5000 (   448 PWs)   bands (ev):

     9.1769   9.2072  12.2784  12.3087  12.8930  12.9112  13.7254  13.7328
    14.7153  14.7205  15.7465  15.7503  27.2906  27.2943

     occupation numbers 
     1.0000   1.0000   1.0000   1.0000   0.7106   0.6043   0.0000   0.0000
     0.0000   0.0000   0.0000   0.0000   0.0000   0.0000

          k = 0.0000 0.2500 0.2500 (   441 PWs)   bands (ev):

     7.1498  10.8000  11.2922  12.3418  12.6351  13.2837  14.0028  14.2996
    14.5899  14.9966  15.7612  19.0563  21.7098  26.9780

     occupation numbers 
     1.0000   1.0000   1.0000   1.0000   1.0047  -0.0007   0.0000   0.0000
     0.0000   0.0000   0.0000   0.0000   0.0000   0.0000

          k = 0.0000 0.2500 0.3750 (   445 PWs)   bands (ev):

     8.3190  10.4000  11.8294  12.2003  12.4981  12.6743  14.0560  14.4532
    14.8475  15.1978  15.6668  17.1967  22.6238  26.4954

     occupation numbers 
     1.0000   1.0000   1.0000   1.0000   1.0000   1.0120   0.0000   0.0000
     0.0000   0.0000   0.0000   0.0000   0.0000   0.0000

          k = 0.0000 0.2500-0.5000 (   446 PWs)   bands (ev):

     9.5134   9.5232  12.2734  12.2976  12.3000  12.3077  14.2807  14.2881
    15.3297  15.3298  15.7469  15.7474  24.3527  24.3527

     occupation numbers 
     1.0000   1.0000   1.0000   1.0000   1.0000   1.0000   0.0000   0.0000
     0.0000   0.0000   0.0000   0.0000   0.0000   0.0000

          k = 0.0000 0.3750 0.3750 (   442 PWs)   bands (ev):

     9.0735  10.1151  11.9125  12.1512  12.4655  12.7111  14.3712  14.7289
    15.1068  15.3933  15.8655  16.6797  21.5349  24.0320

     occupation numbers 
     1.0000   1.0000   1.0000   1.0000   1.0000   1.0233   0.0000   0.0000
     0.0000   0.0000   0.0000   0.0000   0.0000   0.0000

          k = 0.0000 0.3750-0.5000 (   436 PWs)   bands (ev):

     9.6536   9.6912  11.8877  11.8897  12.9225  12.9375  14.6590  14.6695
    15.5182  15.5272  15.7579  15.7581  22.2674  22.2723

     occupation numbers 
     1.0000   1.0000   1.0000   1.0000   0.5347   0.4415   0.0000   0.0000
     0.0000   0.0000   0.0000   0.0000   0.0000   0.0000

          k = 0.0000-0.5000-0.5000 (   428 PWs)   bands (ev):

     9.6634   9.7074  11.7425  11.7425  13.5566  13.5566  14.7872  14.7975
    15.1557  15.1759  15.9095  15.9095  21.5082  21.5158

     occupation numbers 
     1.0000   1.0000   1.0000   1.0000   0.0000   0.0000   0.0000   0.0000
     0.0000   0.0000   0.0000   0.0000   0.0000   0.0000

          k = 0.1250 0.1250 0.1250 (   446 PWs)   bands (ev):

     5.7441  10.7011  10.7011  12.7474  12.7474  13.6222  14.1005  14.8136
    14.8136  15.3304  15.3304  22.0979  22.0979  23.0260

     occupation numbers 
     1.0000   1.0000   1.0000   1.0340   1.0340   0.0000   0.0000   0.0000
     0.0000   0.0000   0.0000   0.0000   0.0000   0.0000

          k = 0.1250 0.1250 0.2500 (   438 PWs)   bands (ev):

     6.6210  10.8489  11.0637  12.5538  12.6120  13.3633  14.0754  14.4996
    14.6777  15.0316  15.4041  19.4847  23.5310  24.0250

     occupation numbers 
     1.0000   1.0000   1.0000   1.0004   1.0025   0.0000   0.0000   0.0000
     0.0000   0.0000   0.0000   0.0000   0.0000   0.0000

          k = 0.1250 0.1250 0.3750 (   443 PWs)   bands (ev):

     7.9299  10.4828  11.5773  12.4166  12.5434  12.9561  14.1108  14.1281
    14.5807  15.2104  15.3024  17.2256  25.3237  25.6778

     occupation numbers 
     1.0000   1.0000   1.0000   1.0000   1.0002   0.3298   0.0000   0.0000
     0.0000   0.0000   0.0000   0.0000   0.0000   0.0000

          k = 0.1250 0.1250-0.5000 (   448 PWs)   bands (ev):

     9.3667   9.3825  12.0770  12.0896  12.7264  12.7265  13.9152  13.9167
    14.9595  14.9646  15.8724  15.8761  27.2309  27.2399

     occupation numbers 
     1.0000   1.0000   1.0000   1.0000   1.0284   1.0285   0.0000   0.0000
     0.0000   0.0000   0.0000   0.0000   0.0000   0.0000

          k = 0.1250 0.2500 0.2500 (   435 PWs)   bands (ev):

     7.4276  10.9969  11.3314  12.2588  12.3966  12.6891  14.4830  14.6387
    14.6791  14.9712  15.4478  19.6564  21.7763  24.7595

     occupation numbers 
     1.0000   1.0000   1.0000   1.0000   1.0000   1.0162   0.0000   0.0000
     0.0000   0.0000   0.0000   0.0000   0.0000   0.0000

          k = 0.1250 0.2500 0.3750 (   441 PWs)   bands (ev):

     8.5751  10.6073  11.7222  12.0827  12.2812  12.4201  14.3095  14.5261
    15.0913  15.3395  15.3885  17.7648  22.7338  26.1752

     occupation numbers 
     1.0000   1.0000   1.0000   1.0000   1.0000   1.0000   0.0000   0.0000
     0.0000   0.0000   0.0000   0.0000   0.0000   0.0000

          k = 0.1250 0.2500-0.5000 (   440 PWs)   bands (ev):

     9.7292   9.7480  11.9492  11.9562  12.3263  12.3485  14.3653  14.3736
    15.2186  15.2256  16.2368  16.2389  24.4769  24.4777

     occupation numbers 
     1.0000   1.0000   1.0000   1.0000   1.0000   1.0000   0.0000   0.0000
     0.0000   0.0000   0.0000   0.0000   0.0000   0.0000

          k = 0.1250 0.3750 0.3750 (   445 PWs)   bands (ev):

     9.3316  10.3282  11.8397  11.9896  12.3204  12.3938  14.5204  14.7742
    15.1110  15.4499  15.8844  17.5386  21.5475  24.1459

     occupation numbers 
     1.0000   1.0000   1.0000   1.0000   1.0000   1.0000   0.0000   0.0000
     0.0000   0.0000   0.0000   0.0000   0.0000   0.0000

          k = 0.1250 0.3750-0.5000 (   440 PWs)   bands (ev):

     9.8850   9.9274  11.7967  11.8017  12.6248  12.6399  14.7176  14.7291
    15.2492  15.2624  16.5778  16.5781  22.3257  22.3300

     occupation numbers 
     1.0000   1.0000   1.0000   1.0000   1.0036   1.0054   0.0000   0.0000
     0.0000   0.0000   0.0000   0.0000   0.0000   0.0000

          k = 0.1250-0.5000-0.5000 (   444 PWs)   bands (ev):

     9.8918   9.9392  11.6803  11.6803  13.0640  13.0640  14.8393  14.8509
    15.1624  15.1825  16.6848  16.6848  21.5115  21.5190

     occupation numbers 
     1.0000   1.0000   1.0000   1.0000  -0.0250  -0.0250   0.0000   0.0000
     0.0000   0.0000   0.0000   0.0000   0.0000   0.0000

          k = 0.2500 0.2500 0.2500 (   443 PWs)   bands (ev):

     8.1990  11.4271  11.4271  11.9303  12.0567  12.0567  14.8875  14.8875
    14.9489  14.9489  15.3087  21.0157  21.0157  22.9966

     occupation numbers 
     1.0000   1.0000   1.0000   1.0000   1.0000   1.0000   0.0000   0.0000
     0.0000   0.0000   0.0000   0.0000   0.0000   0.0000

          k = 0.2500 0.2500 0.3750 (   445 PWs)   bands (ev):

     9.2523  11.0132  11.5379  11.8354  11.9484  12.0457  14.6634  14.7548
    15.1056  15.1404  16.0560  18.7664  22.7199  23.7193

     occupation numbers 
     1.0000   1.0000   1.0000   1.0000   1.0000   1.0000   0.0000   0.0000
     0.0000   0.0000   0.0000   0.0000   0.0000   0.0000

          k = 0.2500 0.2500-0.5000 (   442 PWs)   bands (ev):

    10.2179  10.2597  11.6515  11.6735  12.0702  12.1079  14.6313  14.6435
    15.1742  15.1865  17.0837  17.0842  24.6523  24.6538

     occupation numbers 
     1.0000   1.0000   1.0000   1.0000   1.0000   1.0000   0.0000   0.0000
     0.0000   0.0000   0.0000   0.0000   0.0000   0.0000

          k = 0.2500 0.3750 0.3750 (   438 PWs)   bands (ev):

    10.0232  10.8431  11.6734  11.6871  11.8577  11.9886  14.8190  14.9277
    15.1146  15.1540  16.8726  19.0497  21.5672  24.3687

     occupation numbers 
     1.0000   1.0000   1.0000   1.0000   1.0000   1.0000   0.0000   0.0000
     0.0000   0.0000   0.0000   0.0000   0.0000   0.0000

          k = 0.2500 0.3750-0.5000 (   442 PWs)   bands (ev):

    10.4796  10.5350  11.6009  11.6174  12.0743  12.0994  14.8889  14.9036
    15.1703  15.1872  17.8737  17.8746  22.5820  22.5854

     occupation numbers 
     1.0000   1.0000   1.0000   1.0000   1.0000   1.0000   0.0000   0.0000
     0.0000   0.0000   0.0000   0.0000   0.0000   0.0000

          k = 0.2500-0.5000-0.5000 (   436 PWs)   bands (ev):

    10.4859  10.5418  11.5425  11.5425  12.3248  12.3248  14.9756  14.9906
    15.1789  15.1989  18.2677  18.2677  21.5827  21.5902

     occupation numbers 
     1.0000   1.0000   1.0000   1.0000   1.0000   1.0000   0.0000   0.0000
     0.0000   0.0000   0.0000   0.0000   0.0000   0.0000

          k = 0.3750 0.3750 0.3750 (   450 PWs)   bands (ev):

    10.8256  11.1411  11.5237  11.5237  11.6760  11.6760  15.0686  15.0686
    15.1073  15.1073  17.9626  20.8757  20.8757  22.9895

     occupation numbers 
     1.0000   1.0000   1.0000   1.0000   1.0000   1.0000   0.0000   0.0000
     0.0000   0.0000   0.0000   0.0000   0.0000   0.0000

          k = 0.3750 0.3750-0.5000 (   452 PWs)   bands (ev):

    11.0525  11.1172  11.4825  11.5363  11.6793  11.7383  15.0710  15.0888
    15.1684  15.1870  19.2460  19.2481  22.9455  22.9557

     occupation numbers 
     1.0000   1.0000   1.0000   1.0000   1.0000   1.0000   0.0000   0.0000
     0.0000   0.0000   0.0000   0.0000   0.0000   0.0000

          k = 0.3750-0.5000-0.5000 (   440 PWs)   bands (ev):

    11.1542  11.2190  11.4383  11.4383  11.7811  11.7811  15.1299  15.1482
    15.1958  15.2157  20.1944  20.1944  21.8949  21.9041

     occupation numbers 
     1.0000   1.0000   1.0000   1.0000   1.0000   1.0000   0.0000   0.0000
     0.0000   0.0000   0.0000   0.0000   0.0000   0.0000

          k =-0.5000-0.5000-0.5000 (   432 PWs)   bands (ev):

    11.4586  11.4586  11.4586  11.5272  11.5272  11.5272  15.2027  15.2027
    15.2225  15.2225  22.3462  22.3462  22.3462  22.3627

     occupation numbers 
     1.0000   1.0000   1.0000   1.0000   1.0000   1.0000   0.0000   0.0000
     0.0000   0.0000   0.0000   0.0000   0.0000   0.0000

     the Fermi energy is    12.9281 ev

!    total energy              =    -111.54840809 Ry
     Harris-Foulkes estimate   =    -111.54840809 Ry
     estimated scf accuracy    <          7.0E-11 Ry

     The total energy is the sum of the following terms:

     one-electron contribution =      13.82009592 Ry
     hartree contribution      =      13.42189538 Ry
     xc contribution           =     -52.90052242 Ry
     ewald contribution        =     -85.94499659 Ry
     Hubbard energy            =       0.05516576 Ry
     smearing contrib. (-TS)   =      -0.00004613 Ry

     total magnetization       =     4.87 Bohr mag/cell
     absolute magnetization    =     5.21 Bohr mag/cell

     convergence has been achieved in  10 iterations

     Writing output data file fe.save
 
     init_run     :      0.61s CPU      0.62s WALL (       1 calls)
     electrons    :      7.87s CPU      8.04s WALL (       1 calls)

     Called by init_run:
     wfcinit      :      0.02s CPU      0.02s WALL (       1 calls)
     potinit      :      0.17s CPU      0.18s WALL (       1 calls)

     Called by electrons:
     c_bands      :      5.79s CPU      5.90s WALL (      10 calls)
     sum_band     :      1.38s CPU      1.41s WALL (      10 calls)
     v_of_rho     :      0.29s CPU      0.29s WALL (      11 calls)
     v_h          :      0.00s CPU      0.01s WALL (      11 calls)
     v_xc         :      0.29s CPU      0.29s WALL (      11 calls)
     newd         :      0.44s CPU      0.44s WALL (      11 calls)
     mix_rho      :      0.02s CPU      0.02s WALL (      10 calls)

     Called by c_bands:
     init_us_2    :      0.13s CPU      0.15s WALL (    1470 calls)
     cegterg      :      5.22s CPU      5.33s WALL (     700 calls)

     Called by sum_band:
     sum_band:bec :      0.04s CPU      0.03s WALL (     700 calls)
     addusdens    :      0.55s CPU      0.56s WALL (      10 calls)

     Called by *egterg:
     h_psi        :      2.82s CPU      2.95s WALL (    2589 calls)
     s_psi        :      0.16s CPU      0.18s WALL (    2659 calls)
     g_psi        :      0.04s CPU      0.05s WALL (    1889 calls)
     cdiaghg      :      1.56s CPU      1.52s WALL (    2519 calls)
     cegterg:over :      0.24s CPU      0.24s WALL (    1889 calls)
     cegterg:upda :      0.12s CPU      0.13s WALL (    1889 calls)
     cegterg:last :      0.09s CPU      0.08s WALL (     767 calls)

     Called by h_psi:
     h_psi:vloc   :      2.22s CPU      2.33s WALL (    2589 calls)
     h_psi:vnl    :      0.38s CPU      0.40s WALL (    2589 calls)
     add_vuspsi   :      0.16s CPU      0.19s WALL (    2589 calls)
     vhpsi        :      0.20s CPU      0.19s WALL (    2589 calls)

     General routines
     calbec       :      0.38s CPU      0.42s WALL (    6648 calls)
     fft          :      0.14s CPU      0.17s WALL (     329 calls)
     ffts         :      0.00s CPU      0.00s WALL (      42 calls)
     fftw         :      2.12s CPU      2.19s WALL (   61202 calls)
     interpolate  :      0.02s CPU      0.02s WALL (      42 calls)
     davcio       :      0.00s CPU      0.00s WALL (     210 calls)
 
     Parallel routines
     fft_scatter  :      1.05s CPU      1.02s WALL (   61573 calls)
     Hubbard U routines
     new_ns       :      0.06s CPU      0.06s WALL (      10 calls)
     vhpsi        :      0.20s CPU      0.19s WALL (    2589 calls)
 
     PWSCF        :     8.74s CPU         8.97s WALL

 
   This run was terminated on:  17:33:21  30Jun2014            

=------------------------------------------------------------------------------=
   JOB DONE.
=------------------------------------------------------------------------------=
