
     Program PWSCF v.5.1 starts on 30Jun2014 at 17:32:48 

     This program is part of the open-source Quantum ESPRESSO suite
     for quantum simulation of materials; please cite
         "P. Giannozzi et al., J. Phys.:Condens. Matter 21 395502 (2009);
          URL http://www.quantum-espresso.org", 
     in publications or presentations arising from this work. More details at
     http://www.quantum-espresso.org/quote

     Parallel version (MPI), running on     4 processors
     R & G space division:  proc/nbgrp/npool/nimage =       4
     Waiting for input...
     Reading input from standard input

     Current dimensions of program PWSCF are:
     Max number of different atomic species (ntypx) = 10
     Max number of k-points (npk) =  40000
     Max angular momentum in pseudopotentials (lmaxx) =  3
               file Fe.pbe-nd-rrkjus.UPF: wavefunction(s)  4S renormalized
               file Fe.pbe-nd-rrkjus.UPF: wavefunction(s)  4S renormalized

     Subspace diagonalization in iterative solution of the eigenvalue problem:
     a serial algorithm will be used

 
     Parallelization info
     --------------------
     sticks:   dense  smooth     PW     G-vecs:    dense   smooth      PW
     Min         211      71     24                 4581      891     184
     Max         212      72     25                 4582      900     187
     Sum         845     285     97                18325     3575     739
 
     Generating pointlists ...
     new r_m :   0.3572 (alat units)  1.9362 (a.u.) for type    1
     new r_m :   0.3572 (alat units)  1.9362 (a.u.) for type    2


     bravais-lattice index     =            1
     lattice parameter (alat)  =       5.4200  a.u.
     unit-cell volume          =     159.2201 (a.u.)^3
     number of atoms/cell      =            2
     number of atomic types    =            2
     number of electrons       =        16.00
     number of Kohn-Sham states=           14
     kinetic-energy cutoff     =      30.0000  Ry
     charge density cutoff     =     360.0000  Ry
     convergence threshold     =      1.0E-09
     mixing beta               =       0.7000
     number of iterations used =            8  plain     mixing
     Exchange-correlation      =  SLA  PW   PBE  PBE ( 1  4  3  4 0)

     celldm(1)=   5.420000  celldm(2)=   0.000000  celldm(3)=   0.000000
     celldm(4)=   0.000000  celldm(5)=   0.000000  celldm(6)=   0.000000

     crystal axes: (cart. coord. in units of alat)
               a(1) = (   1.000000   0.000000   0.000000 )  
               a(2) = (   0.000000   1.000000   0.000000 )  
               a(3) = (   0.000000   0.000000   1.000000 )  

     reciprocal axes: (cart. coord. in units 2 pi/alat)
               b(1) = (  1.000000  0.000000  0.000000 )  
               b(2) = (  0.000000  1.000000  0.000000 )  
               b(3) = (  0.000000  0.000000  1.000000 )  


     PseudoPot. # 1 for Fe read from file:
     ../pseudo/Fe.pbe-nd-rrkjus.UPF
     MD5 check sum: 23c640529ef232ac9996b4ec1b0ce2fd
     Pseudo is Ultrasoft + core correction, Zval =  8.0
     Generated by new atomic code, or converted to UPF format
     Using radial grid of  957 points,  6 beta functions with: 
                l(1) =   0
                l(2) =   0
                l(3) =   1
                l(4) =   1
                l(5) =   2
                l(6) =   2
     Q(r) pseudized with 0 coefficients 


     PseudoPot. # 2 for Fe read from file:
     ../pseudo/Fe.pbe-nd-rrkjus.UPF
     MD5 check sum: 23c640529ef232ac9996b4ec1b0ce2fd
     Pseudo is Ultrasoft + core correction, Zval =  8.0
     Generated by new atomic code, or converted to UPF format
     Using radial grid of  957 points,  6 beta functions with: 
                l(1) =   0
                l(2) =   0
                l(3) =   1
                l(4) =   1
                l(5) =   2
                l(6) =   2
     Q(r) pseudized with 0 coefficients 


     atomic species   valence    mass     pseudopotential
        Fe1            8.00     1.00000     Fe( 1.00)
        Fe             8.00     1.00000     Fe( 1.00)

     Starting magnetic structure 
     atomic species   magnetization
        Fe1          0.600
        Fe           0.600


     Simplified LDA+U calculation (l_max = 2) with parameters (eV):
     atomic species    L          U    alpha       J0     beta
        Fe1            2     0.0000  -0.0500   0.0000   0.0000
        Fe             2     0.0000   0.0000   0.0000   0.0000



     48 Sym. Ops., with inversion, found


                                    s                        frac. trans.

      isym =  1     identity                                     

 cryst.   s( 1) = (     1          0          0      )
                  (     0          1          0      )
                  (     0          0          1      )

 cart.    s( 1) = (  1.0000000  0.0000000  0.0000000 )
                  (  0.0000000  1.0000000  0.0000000 )
                  (  0.0000000  0.0000000  1.0000000 )


      isym =  2     180 deg rotation - cart. axis [0,0,1]        

 cryst.   s( 2) = (    -1          0          0      )
                  (     0         -1          0      )
                  (     0          0          1      )

 cart.    s( 2) = ( -1.0000000  0.0000000  0.0000000 )
                  (  0.0000000 -1.0000000  0.0000000 )
                  (  0.0000000  0.0000000  1.0000000 )


      isym =  3     180 deg rotation - cart. axis [0,1,0]        

 cryst.   s( 3) = (    -1          0          0      )
                  (     0          1          0      )
                  (     0          0         -1      )

 cart.    s( 3) = ( -1.0000000  0.0000000  0.0000000 )
                  (  0.0000000  1.0000000  0.0000000 )
                  (  0.0000000  0.0000000 -1.0000000 )


      isym =  4     180 deg rotation - cart. axis [1,0,0]        

 cryst.   s( 4) = (     1          0          0      )
                  (     0         -1          0      )
                  (     0          0         -1      )

 cart.    s( 4) = (  1.0000000  0.0000000  0.0000000 )
                  (  0.0000000 -1.0000000  0.0000000 )
                  (  0.0000000  0.0000000 -1.0000000 )


      isym =  5     180 deg rotation - cart. axis [1,1,0]        

 cryst.   s( 5) = (     0          1          0      )
                  (     1          0          0      )
                  (     0          0         -1      )

 cart.    s( 5) = (  0.0000000  1.0000000  0.0000000 )
                  (  1.0000000  0.0000000  0.0000000 )
                  (  0.0000000  0.0000000 -1.0000000 )


      isym =  6     180 deg rotation - cart. axis [1,-1,0]       

 cryst.   s( 6) = (     0         -1          0      )
                  (    -1          0          0      )
                  (     0          0         -1      )

 cart.    s( 6) = (  0.0000000 -1.0000000  0.0000000 )
                  ( -1.0000000  0.0000000  0.0000000 )
                  (  0.0000000  0.0000000 -1.0000000 )


      isym =  7      90 deg rotation - cart. axis [0,0,-1]       

 cryst.   s( 7) = (     0         -1          0      )
                  (     1          0          0      )
                  (     0          0          1      )

 cart.    s( 7) = (  0.0000000  1.0000000  0.0000000 )
                  ( -1.0000000  0.0000000  0.0000000 )
                  (  0.0000000  0.0000000  1.0000000 )


      isym =  8      90 deg rotation - cart. axis [0,0,1]        

 cryst.   s( 8) = (     0          1          0      )
                  (    -1          0          0      )
                  (     0          0          1      )

 cart.    s( 8) = (  0.0000000 -1.0000000  0.0000000 )
                  (  1.0000000  0.0000000  0.0000000 )
                  (  0.0000000  0.0000000  1.0000000 )


      isym =  9     180 deg rotation - cart. axis [1,0,1]        

 cryst.   s( 9) = (     0          0          1      )
                  (     0         -1          0      )
                  (     1          0          0      )

 cart.    s( 9) = (  0.0000000  0.0000000  1.0000000 )
                  (  0.0000000 -1.0000000  0.0000000 )
                  (  1.0000000  0.0000000  0.0000000 )


      isym = 10     180 deg rotation - cart. axis [-1,0,1]       

 cryst.   s(10) = (     0          0         -1      )
                  (     0         -1          0      )
                  (    -1          0          0      )

 cart.    s(10) = (  0.0000000  0.0000000 -1.0000000 )
                  (  0.0000000 -1.0000000  0.0000000 )
                  ( -1.0000000  0.0000000  0.0000000 )


      isym = 11      90 deg rotation - cart. axis [0,1,0]        

 cryst.   s(11) = (     0          0         -1      )
                  (     0          1          0      )
                  (     1          0          0      )

 cart.    s(11) = (  0.0000000  0.0000000  1.0000000 )
                  (  0.0000000  1.0000000  0.0000000 )
                  ( -1.0000000  0.0000000  0.0000000 )


      isym = 12      90 deg rotation - cart. axis [0,-1,0]       

 cryst.   s(12) = (     0          0          1      )
                  (     0          1          0      )
                  (    -1          0          0      )

 cart.    s(12) = (  0.0000000  0.0000000 -1.0000000 )
                  (  0.0000000  1.0000000  0.0000000 )
                  (  1.0000000  0.0000000  0.0000000 )


      isym = 13     180 deg rotation - cart. axis [0,1,1]        

 cryst.   s(13) = (    -1          0          0      )
                  (     0          0          1      )
                  (     0          1          0      )

 cart.    s(13) = ( -1.0000000  0.0000000  0.0000000 )
                  (  0.0000000  0.0000000  1.0000000 )
                  (  0.0000000  1.0000000  0.0000000 )


      isym = 14     180 deg rotation - cart. axis [0,1,-1]       

 cryst.   s(14) = (    -1          0          0      )
                  (     0          0         -1      )
                  (     0         -1          0      )

 cart.    s(14) = ( -1.0000000  0.0000000  0.0000000 )
                  (  0.0000000  0.0000000 -1.0000000 )
                  (  0.0000000 -1.0000000  0.0000000 )


      isym = 15      90 deg rotation - cart. axis [-1,0,0]       

 cryst.   s(15) = (     1          0          0      )
                  (     0          0         -1      )
                  (     0          1          0      )

 cart.    s(15) = (  1.0000000  0.0000000  0.0000000 )
                  (  0.0000000  0.0000000  1.0000000 )
                  (  0.0000000 -1.0000000  0.0000000 )


      isym = 16      90 deg rotation - cart. axis [1,0,0]        

 cryst.   s(16) = (     1          0          0      )
                  (     0          0          1      )
                  (     0         -1          0      )

 cart.    s(16) = (  1.0000000  0.0000000  0.0000000 )
                  (  0.0000000  0.0000000 -1.0000000 )
                  (  0.0000000  1.0000000  0.0000000 )


      isym = 17     120 deg rotation - cart. axis [-1,-1,-1]     

 cryst.   s(17) = (     0          0          1      )
                  (     1          0          0      )
                  (     0          1          0      )

 cart.    s(17) = (  0.0000000  1.0000000  0.0000000 )
                  (  0.0000000  0.0000000  1.0000000 )
                  (  1.0000000  0.0000000  0.0000000 )


      isym = 18     120 deg rotation - cart. axis [-1,1,1]       

 cryst.   s(18) = (     0          0         -1      )
                  (    -1          0          0      )
                  (     0          1          0      )

 cart.    s(18) = (  0.0000000 -1.0000000  0.0000000 )
                  (  0.0000000  0.0000000  1.0000000 )
                  ( -1.0000000  0.0000000  0.0000000 )


      isym = 19     120 deg rotation - cart. axis [1,1,-1]       

 cryst.   s(19) = (     0          0         -1      )
                  (     1          0          0      )
                  (     0         -1          0      )

 cart.    s(19) = (  0.0000000  1.0000000  0.0000000 )
                  (  0.0000000  0.0000000 -1.0000000 )
                  ( -1.0000000  0.0000000  0.0000000 )


      isym = 20     120 deg rotation - cart. axis [1,-1,1]       

 cryst.   s(20) = (     0          0          1      )
                  (    -1          0          0      )
                  (     0         -1          0      )

 cart.    s(20) = (  0.0000000 -1.0000000  0.0000000 )
                  (  0.0000000  0.0000000 -1.0000000 )
                  (  1.0000000  0.0000000  0.0000000 )


      isym = 21     120 deg rotation - cart. axis [1,1,1]        

 cryst.   s(21) = (     0          1          0      )
                  (     0          0          1      )
                  (     1          0          0      )

 cart.    s(21) = (  0.0000000  0.0000000  1.0000000 )
                  (  1.0000000  0.0000000  0.0000000 )
                  (  0.0000000  1.0000000  0.0000000 )


      isym = 22     120 deg rotation - cart. axis [-1,1,-1]      

 cryst.   s(22) = (     0         -1          0      )
                  (     0          0         -1      )
                  (     1          0          0      )

 cart.    s(22) = (  0.0000000  0.0000000  1.0000000 )
                  ( -1.0000000  0.0000000  0.0000000 )
                  (  0.0000000 -1.0000000  0.0000000 )


      isym = 23     120 deg rotation - cart. axis [1,-1,-1]      

 cryst.   s(23) = (     0         -1          0      )
                  (     0          0          1      )
                  (    -1          0          0      )

 cart.    s(23) = (  0.0000000  0.0000000 -1.0000000 )
                  ( -1.0000000  0.0000000  0.0000000 )
                  (  0.0000000  1.0000000  0.0000000 )


      isym = 24     120 deg rotation - cart. axis [-1,-1,1]      

 cryst.   s(24) = (     0          1          0      )
                  (     0          0         -1      )
                  (    -1          0          0      )

 cart.    s(24) = (  0.0000000  0.0000000 -1.0000000 )
                  (  1.0000000  0.0000000  0.0000000 )
                  (  0.0000000 -1.0000000  0.0000000 )


      isym = 25     inversion                                    

 cryst.   s(25) = (    -1          0          0      )
                  (     0         -1          0      )
                  (     0          0         -1      )

 cart.    s(25) = ( -1.0000000  0.0000000  0.0000000 )
                  (  0.0000000 -1.0000000  0.0000000 )
                  (  0.0000000  0.0000000 -1.0000000 )


      isym = 26     inv. 180 deg rotation - cart. axis [0,0,1]   

 cryst.   s(26) = (     1          0          0      )
                  (     0          1          0      )
                  (     0          0         -1      )

 cart.    s(26) = (  1.0000000  0.0000000  0.0000000 )
                  (  0.0000000  1.0000000  0.0000000 )
                  (  0.0000000  0.0000000 -1.0000000 )


      isym = 27     inv. 180 deg rotation - cart. axis [0,1,0]   

 cryst.   s(27) = (     1          0          0      )
                  (     0         -1          0      )
                  (     0          0          1      )

 cart.    s(27) = (  1.0000000  0.0000000  0.0000000 )
                  (  0.0000000 -1.0000000  0.0000000 )
                  (  0.0000000  0.0000000  1.0000000 )


      isym = 28     inv. 180 deg rotation - cart. axis [1,0,0]   

 cryst.   s(28) = (    -1          0          0      )
                  (     0          1          0      )
                  (     0          0          1      )

 cart.    s(28) = ( -1.0000000  0.0000000  0.0000000 )
                  (  0.0000000  1.0000000  0.0000000 )
                  (  0.0000000  0.0000000  1.0000000 )


      isym = 29     inv. 180 deg rotation - cart. axis [1,1,0]   

 cryst.   s(29) = (     0         -1          0      )
                  (    -1          0          0      )
                  (     0          0          1      )

 cart.    s(29) = (  0.0000000 -1.0000000  0.0000000 )
                  ( -1.0000000  0.0000000  0.0000000 )
                  (  0.0000000  0.0000000  1.0000000 )


      isym = 30     inv. 180 deg rotation - cart. axis [1,-1,0]  

 cryst.   s(30) = (     0          1          0      )
                  (     1          0          0      )
                  (     0          0          1      )

 cart.    s(30) = (  0.0000000  1.0000000  0.0000000 )
                  (  1.0000000  0.0000000  0.0000000 )
                  (  0.0000000  0.0000000  1.0000000 )


      isym = 31     inv.  90 deg rotation - cart. axis [0,0,-1]  

 cryst.   s(31) = (     0          1          0      )
                  (    -1          0          0      )
                  (     0          0         -1      )

 cart.    s(31) = (  0.0000000 -1.0000000  0.0000000 )
                  (  1.0000000  0.0000000  0.0000000 )
                  (  0.0000000  0.0000000 -1.0000000 )


      isym = 32     inv.  90 deg rotation - cart. axis [0,0,1]   

 cryst.   s(32) = (     0         -1          0      )
                  (     1          0          0      )
                  (     0          0         -1      )

 cart.    s(32) = (  0.0000000  1.0000000  0.0000000 )
                  ( -1.0000000  0.0000000  0.0000000 )
                  (  0.0000000  0.0000000 -1.0000000 )


      isym = 33     inv. 180 deg rotation - cart. axis [1,0,1]   

 cryst.   s(33) = (     0          0         -1      )
                  (     0          1          0      )
                  (    -1          0          0      )

 cart.    s(33) = (  0.0000000  0.0000000 -1.0000000 )
                  (  0.0000000  1.0000000  0.0000000 )
                  ( -1.0000000  0.0000000  0.0000000 )


      isym = 34     inv. 180 deg rotation - cart. axis [-1,0,1]  

 cryst.   s(34) = (     0          0          1      )
                  (     0          1          0      )
                  (     1          0          0      )

 cart.    s(34) = (  0.0000000  0.0000000  1.0000000 )
                  (  0.0000000  1.0000000  0.0000000 )
                  (  1.0000000  0.0000000  0.0000000 )


      isym = 35     inv.  90 deg rotation - cart. axis [0,1,0]   

 cryst.   s(35) = (     0          0          1      )
                  (     0         -1          0      )
                  (    -1          0          0      )

 cart.    s(35) = (  0.0000000  0.0000000 -1.0000000 )
                  (  0.0000000 -1.0000000  0.0000000 )
                  (  1.0000000  0.0000000  0.0000000 )


      isym = 36     inv.  90 deg rotation - cart. axis [0,-1,0]  

 cryst.   s(36) = (     0          0         -1      )
                  (     0         -1          0      )
                  (     1          0          0      )

 cart.    s(36) = (  0.0000000  0.0000000  1.0000000 )
                  (  0.0000000 -1.0000000  0.0000000 )
                  ( -1.0000000  0.0000000  0.0000000 )


      isym = 37     inv. 180 deg rotation - cart. axis [0,1,1]   

 cryst.   s(37) = (     1          0          0      )
                  (     0          0         -1      )
                  (     0         -1          0      )

 cart.    s(37) = (  1.0000000  0.0000000  0.0000000 )
                  (  0.0000000  0.0000000 -1.0000000 )
                  (  0.0000000 -1.0000000  0.0000000 )


      isym = 38     inv. 180 deg rotation - cart. axis [0,1,-1]  

 cryst.   s(38) = (     1          0          0      )
                  (     0          0          1      )
                  (     0          1          0      )

 cart.    s(38) = (  1.0000000  0.0000000  0.0000000 )
                  (  0.0000000  0.0000000  1.0000000 )
                  (  0.0000000  1.0000000  0.0000000 )


      isym = 39     inv.  90 deg rotation - cart. axis [-1,0,0]  

 cryst.   s(39) = (    -1          0          0      )
                  (     0          0          1      )
                  (     0         -1          0      )

 cart.    s(39) = ( -1.0000000  0.0000000  0.0000000 )
                  (  0.0000000  0.0000000 -1.0000000 )
                  (  0.0000000  1.0000000  0.0000000 )


      isym = 40     inv.  90 deg rotation - cart. axis [1,0,0]   

 cryst.   s(40) = (    -1          0          0      )
                  (     0          0         -1      )
                  (     0          1          0      )

 cart.    s(40) = ( -1.0000000  0.0000000  0.0000000 )
                  (  0.0000000  0.0000000  1.0000000 )
                  (  0.0000000 -1.0000000  0.0000000 )


      isym = 41     inv. 120 deg rotation - cart. axis [-1,-1,-1]

 cryst.   s(41) = (     0          0         -1      )
                  (    -1          0          0      )
                  (     0         -1          0      )

 cart.    s(41) = (  0.0000000 -1.0000000  0.0000000 )
                  (  0.0000000  0.0000000 -1.0000000 )
                  ( -1.0000000  0.0000000  0.0000000 )


      isym = 42     inv. 120 deg rotation - cart. axis [-1,1,1]  

 cryst.   s(42) = (     0          0          1      )
                  (     1          0          0      )
                  (     0         -1          0      )

 cart.    s(42) = (  0.0000000  1.0000000  0.0000000 )
                  (  0.0000000  0.0000000 -1.0000000 )
                  (  1.0000000  0.0000000  0.0000000 )


      isym = 43     inv. 120 deg rotation - cart. axis [1,1,-1]  

 cryst.   s(43) = (     0          0          1      )
                  (    -1          0          0      )
                  (     0          1          0      )

 cart.    s(43) = (  0.0000000 -1.0000000  0.0000000 )
                  (  0.0000000  0.0000000  1.0000000 )
                  (  1.0000000  0.0000000  0.0000000 )


      isym = 44     inv. 120 deg rotation - cart. axis [1,-1,1]  

 cryst.   s(44) = (     0          0         -1      )
                  (     1          0          0      )
                  (     0          1          0      )

 cart.    s(44) = (  0.0000000  1.0000000  0.0000000 )
                  (  0.0000000  0.0000000  1.0000000 )
                  ( -1.0000000  0.0000000  0.0000000 )


      isym = 45     inv. 120 deg rotation - cart. axis [1,1,1]   

 cryst.   s(45) = (     0         -1          0      )
                  (     0          0         -1      )
                  (    -1          0          0      )

 cart.    s(45) = (  0.0000000  0.0000000 -1.0000000 )
                  ( -1.0000000  0.0000000  0.0000000 )
                  (  0.0000000 -1.0000000  0.0000000 )


      isym = 46     inv. 120 deg rotation - cart. axis [-1,1,-1] 

 cryst.   s(46) = (     0          1          0      )
                  (     0          0          1      )
                  (    -1          0          0      )

 cart.    s(46) = (  0.0000000  0.0000000 -1.0000000 )
                  (  1.0000000  0.0000000  0.0000000 )
                  (  0.0000000  1.0000000  0.0000000 )


      isym = 47     inv. 120 deg rotation - cart. axis [1,-1,-1] 

 cryst.   s(47) = (     0          1          0      )
                  (     0          0         -1      )
                  (     1          0          0      )

 cart.    s(47) = (  0.0000000  0.0000000  1.0000000 )
                  (  1.0000000  0.0000000  0.0000000 )
                  (  0.0000000 -1.0000000  0.0000000 )


      isym = 48     inv. 120 deg rotation - cart. axis [-1,-1,1] 

 cryst.   s(48) = (     0         -1          0      )
                  (     0          0          1      )
                  (     1          0          0      )

 cart.    s(48) = (  0.0000000  0.0000000  1.0000000 )
                  ( -1.0000000  0.0000000  0.0000000 )
                  (  0.0000000  1.0000000  0.0000000 )


     point group O_h (m-3m) 
     there are 10 classes
     the character table:

       E     8C3   6C2'  6C4   3C2   i     6S4   8S6   3s_h  6s_d 
A_1g   1.00  1.00  1.00  1.00  1.00  1.00  1.00  1.00  1.00  1.00
A_2g   1.00  1.00 -1.00 -1.00  1.00  1.00 -1.00  1.00  1.00 -1.00
E_g    2.00 -1.00  0.00  0.00  2.00  2.00  0.00 -1.00  2.00  0.00
T_1g   3.00  0.00 -1.00  1.00 -1.00  3.00  1.00  0.00 -1.00 -1.00
T_2g   3.00  0.00  1.00 -1.00 -1.00  3.00 -1.00  0.00 -1.00  1.00
A_1u   1.00  1.00  1.00  1.00  1.00 -1.00 -1.00 -1.00 -1.00 -1.00
A_2u   1.00  1.00 -1.00 -1.00  1.00 -1.00  1.00 -1.00 -1.00  1.00
E_u    2.00 -1.00  0.00  0.00  2.00 -2.00  0.00  1.00 -2.00  0.00
T_1u   3.00  0.00 -1.00  1.00 -1.00 -3.00 -1.00  0.00  1.00  1.00
T_2u   3.00  0.00  1.00 -1.00 -1.00 -3.00  1.00  0.00  1.00 -1.00

     the symmetry operations in each class:
     E        1
     3C2      2    4    3
     6C2'     5    6   14   13   10    9
     6C4      7    8   15   16   12   11
     8C3     17   19   20   18   24   21   22   23
     i       25
     3s_h    26   28   27
     6s_d    29   30   38   37   34   33
     6S4     31   32   39   40   36   35
     8S6     41   43   44   42   48   45   46   47

   Cartesian axes

     site n.     atom                  positions (alat units)
         1           Fe1 tau(   1) = (   0.0000000   0.0000000   0.0000000  )
         2           Fe  tau(   2) = (   0.5000000   0.5000000   0.5000000  )

   Crystallographic axes

     site n.     atom                  positions (cryst. coord.)
         1           Fe1 tau(   1) = (  0.0000000  0.0000000  0.0000000  )
         2           Fe  tau(   2) = (  0.5000000  0.5000000  0.5000000  )

     number of k points=    70  Methfessel-Paxton smearing, width (Ry)=  0.0100
                       cart. coord. in units 2pi/alat
        k(    1) = (   0.0000000   0.0000000   0.0000000), wk =   0.0019531
        k(    2) = (   0.0000000   0.0000000   0.1250000), wk =   0.0117188
        k(    3) = (   0.0000000   0.0000000   0.2500000), wk =   0.0117188
        k(    4) = (   0.0000000   0.0000000   0.3750000), wk =   0.0117188
        k(    5) = (   0.0000000   0.0000000  -0.5000000), wk =   0.0058594
        k(    6) = (   0.0000000   0.1250000   0.1250000), wk =   0.0234375
        k(    7) = (   0.0000000   0.1250000   0.2500000), wk =   0.0468750
        k(    8) = (   0.0000000   0.1250000   0.3750000), wk =   0.0468750
        k(    9) = (   0.0000000   0.1250000  -0.5000000), wk =   0.0234375
        k(   10) = (   0.0000000   0.2500000   0.2500000), wk =   0.0234375
        k(   11) = (   0.0000000   0.2500000   0.3750000), wk =   0.0468750
        k(   12) = (   0.0000000   0.2500000  -0.5000000), wk =   0.0234375
        k(   13) = (   0.0000000   0.3750000   0.3750000), wk =   0.0234375
        k(   14) = (   0.0000000   0.3750000  -0.5000000), wk =   0.0234375
        k(   15) = (   0.0000000  -0.5000000  -0.5000000), wk =   0.0058594
        k(   16) = (   0.1250000   0.1250000   0.1250000), wk =   0.0156250
        k(   17) = (   0.1250000   0.1250000   0.2500000), wk =   0.0468750
        k(   18) = (   0.1250000   0.1250000   0.3750000), wk =   0.0468750
        k(   19) = (   0.1250000   0.1250000  -0.5000000), wk =   0.0234375
        k(   20) = (   0.1250000   0.2500000   0.2500000), wk =   0.0468750
        k(   21) = (   0.1250000   0.2500000   0.3750000), wk =   0.0937500
        k(   22) = (   0.1250000   0.2500000  -0.5000000), wk =   0.0468750
        k(   23) = (   0.1250000   0.3750000   0.3750000), wk =   0.0468750
        k(   24) = (   0.1250000   0.3750000  -0.5000000), wk =   0.0468750
        k(   25) = (   0.1250000  -0.5000000  -0.5000000), wk =   0.0117188
        k(   26) = (   0.2500000   0.2500000   0.2500000), wk =   0.0156250
        k(   27) = (   0.2500000   0.2500000   0.3750000), wk =   0.0468750
        k(   28) = (   0.2500000   0.2500000  -0.5000000), wk =   0.0234375
        k(   29) = (   0.2500000   0.3750000   0.3750000), wk =   0.0468750
        k(   30) = (   0.2500000   0.3750000  -0.5000000), wk =   0.0468750
        k(   31) = (   0.2500000  -0.5000000  -0.5000000), wk =   0.0117188
        k(   32) = (   0.3750000   0.3750000   0.3750000), wk =   0.0156250
        k(   33) = (   0.3750000   0.3750000  -0.5000000), wk =   0.0234375
        k(   34) = (   0.3750000  -0.5000000  -0.5000000), wk =   0.0117188
        k(   35) = (  -0.5000000  -0.5000000  -0.5000000), wk =   0.0019531
        k(   36) = (   0.0000000   0.0000000   0.0000000), wk =   0.0019531
        k(   37) = (   0.0000000   0.0000000   0.1250000), wk =   0.0117188
        k(   38) = (   0.0000000   0.0000000   0.2500000), wk =   0.0117188
        k(   39) = (   0.0000000   0.0000000   0.3750000), wk =   0.0117188
        k(   40) = (   0.0000000   0.0000000  -0.5000000), wk =   0.0058594
        k(   41) = (   0.0000000   0.1250000   0.1250000), wk =   0.0234375
        k(   42) = (   0.0000000   0.1250000   0.2500000), wk =   0.0468750
        k(   43) = (   0.0000000   0.1250000   0.3750000), wk =   0.0468750
        k(   44) = (   0.0000000   0.1250000  -0.5000000), wk =   0.0234375
        k(   45) = (   0.0000000   0.2500000   0.2500000), wk =   0.0234375
        k(   46) = (   0.0000000   0.2500000   0.3750000), wk =   0.0468750
        k(   47) = (   0.0000000   0.2500000  -0.5000000), wk =   0.0234375
        k(   48) = (   0.0000000   0.3750000   0.3750000), wk =   0.0234375
        k(   49) = (   0.0000000   0.3750000  -0.5000000), wk =   0.0234375
        k(   50) = (   0.0000000  -0.5000000  -0.5000000), wk =   0.0058594
        k(   51) = (   0.1250000   0.1250000   0.1250000), wk =   0.0156250
        k(   52) = (   0.1250000   0.1250000   0.2500000), wk =   0.0468750
        k(   53) = (   0.1250000   0.1250000   0.3750000), wk =   0.0468750
        k(   54) = (   0.1250000   0.1250000  -0.5000000), wk =   0.0234375
        k(   55) = (   0.1250000   0.2500000   0.2500000), wk =   0.0468750
        k(   56) = (   0.1250000   0.2500000   0.3750000), wk =   0.0937500
        k(   57) = (   0.1250000   0.2500000  -0.5000000), wk =   0.0468750
        k(   58) = (   0.1250000   0.3750000   0.3750000), wk =   0.0468750
        k(   59) = (   0.1250000   0.3750000  -0.5000000), wk =   0.0468750
        k(   60) = (   0.1250000  -0.5000000  -0.5000000), wk =   0.0117188
        k(   61) = (   0.2500000   0.2500000   0.2500000), wk =   0.0156250
        k(   62) = (   0.2500000   0.2500000   0.3750000), wk =   0.0468750
        k(   63) = (   0.2500000   0.2500000  -0.5000000), wk =   0.0234375
        k(   64) = (   0.2500000   0.3750000   0.3750000), wk =   0.0468750
        k(   65) = (   0.2500000   0.3750000  -0.5000000), wk =   0.0468750
        k(   66) = (   0.2500000  -0.5000000  -0.5000000), wk =   0.0117188
        k(   67) = (   0.3750000   0.3750000   0.3750000), wk =   0.0156250
        k(   68) = (   0.3750000   0.3750000  -0.5000000), wk =   0.0234375
        k(   69) = (   0.3750000  -0.5000000  -0.5000000), wk =   0.0117188
        k(   70) = (  -0.5000000  -0.5000000  -0.5000000), wk =   0.0019531

                       cryst. coord.
        k(    1) = (   0.0000000   0.0000000   0.0000000), wk =   0.0019531
        k(    2) = (   0.0000000   0.0000000   0.1250000), wk =   0.0117188
        k(    3) = (   0.0000000   0.0000000   0.2500000), wk =   0.0117188
        k(    4) = (   0.0000000   0.0000000   0.3750000), wk =   0.0117188
        k(    5) = (   0.0000000   0.0000000  -0.5000000), wk =   0.0058594
        k(    6) = (   0.0000000   0.1250000   0.1250000), wk =   0.0234375
        k(    7) = (   0.0000000   0.1250000   0.2500000), wk =   0.0468750
        k(    8) = (   0.0000000   0.1250000   0.3750000), wk =   0.0468750
        k(    9) = (   0.0000000   0.1250000  -0.5000000), wk =   0.0234375
        k(   10) = (   0.0000000   0.2500000   0.2500000), wk =   0.0234375
        k(   11) = (   0.0000000   0.2500000   0.3750000), wk =   0.0468750
        k(   12) = (   0.0000000   0.2500000  -0.5000000), wk =   0.0234375
        k(   13) = (   0.0000000   0.3750000   0.3750000), wk =   0.0234375
        k(   14) = (   0.0000000   0.3750000  -0.5000000), wk =   0.0234375
        k(   15) = (   0.0000000  -0.5000000  -0.5000000), wk =   0.0058594
        k(   16) = (   0.1250000   0.1250000   0.1250000), wk =   0.0156250
        k(   17) = (   0.1250000   0.1250000   0.2500000), wk =   0.0468750
        k(   18) = (   0.1250000   0.1250000   0.3750000), wk =   0.0468750
        k(   19) = (   0.1250000   0.1250000  -0.5000000), wk =   0.0234375
        k(   20) = (   0.1250000   0.2500000   0.2500000), wk =   0.0468750
        k(   21) = (   0.1250000   0.2500000   0.3750000), wk =   0.0937500
        k(   22) = (   0.1250000   0.2500000  -0.5000000), wk =   0.0468750
        k(   23) = (   0.1250000   0.3750000   0.3750000), wk =   0.0468750
        k(   24) = (   0.1250000   0.3750000  -0.5000000), wk =   0.0468750
        k(   25) = (   0.1250000  -0.5000000  -0.5000000), wk =   0.0117188
        k(   26) = (   0.2500000   0.2500000   0.2500000), wk =   0.0156250
        k(   27) = (   0.2500000   0.2500000   0.3750000), wk =   0.0468750
        k(   28) = (   0.2500000   0.2500000  -0.5000000), wk =   0.0234375
        k(   29) = (   0.2500000   0.3750000   0.3750000), wk =   0.0468750
        k(   30) = (   0.2500000   0.3750000  -0.5000000), wk =   0.0468750
        k(   31) = (   0.2500000  -0.5000000  -0.5000000), wk =   0.0117188
        k(   32) = (   0.3750000   0.3750000   0.3750000), wk =   0.0156250
        k(   33) = (   0.3750000   0.3750000  -0.5000000), wk =   0.0234375
        k(   34) = (   0.3750000  -0.5000000  -0.5000000), wk =   0.0117188
        k(   35) = (  -0.5000000  -0.5000000  -0.5000000), wk =   0.0019531
        k(   36) = (   0.0000000   0.0000000   0.0000000), wk =   0.0019531
        k(   37) = (   0.0000000   0.0000000   0.1250000), wk =   0.0117188
        k(   38) = (   0.0000000   0.0000000   0.2500000), wk =   0.0117188
        k(   39) = (   0.0000000   0.0000000   0.3750000), wk =   0.0117188
        k(   40) = (   0.0000000   0.0000000  -0.5000000), wk =   0.0058594
        k(   41) = (   0.0000000   0.1250000   0.1250000), wk =   0.0234375
        k(   42) = (   0.0000000   0.1250000   0.2500000), wk =   0.0468750
        k(   43) = (   0.0000000   0.1250000   0.3750000), wk =   0.0468750
        k(   44) = (   0.0000000   0.1250000  -0.5000000), wk =   0.0234375
        k(   45) = (   0.0000000   0.2500000   0.2500000), wk =   0.0234375
        k(   46) = (   0.0000000   0.2500000   0.3750000), wk =   0.0468750
        k(   47) = (   0.0000000   0.2500000  -0.5000000), wk =   0.0234375
        k(   48) = (   0.0000000   0.3750000   0.3750000), wk =   0.0234375
        k(   49) = (   0.0000000   0.3750000  -0.5000000), wk =   0.0234375
        k(   50) = (   0.0000000  -0.5000000  -0.5000000), wk =   0.0058594
        k(   51) = (   0.1250000   0.1250000   0.1250000), wk =   0.0156250
        k(   52) = (   0.1250000   0.1250000   0.2500000), wk =   0.0468750
        k(   53) = (   0.1250000   0.1250000   0.3750000), wk =   0.0468750
        k(   54) = (   0.1250000   0.1250000  -0.5000000), wk =   0.0234375
        k(   55) = (   0.1250000   0.2500000   0.2500000), wk =   0.0468750
        k(   56) = (   0.1250000   0.2500000   0.3750000), wk =   0.0937500
        k(   57) = (   0.1250000   0.2500000  -0.5000000), wk =   0.0468750
        k(   58) = (   0.1250000   0.3750000   0.3750000), wk =   0.0468750
        k(   59) = (   0.1250000   0.3750000  -0.5000000), wk =   0.0468750
        k(   60) = (   0.1250000  -0.5000000  -0.5000000), wk =   0.0117188
        k(   61) = (   0.2500000   0.2500000   0.2500000), wk =   0.0156250
        k(   62) = (   0.2500000   0.2500000   0.3750000), wk =   0.0468750
        k(   63) = (   0.2500000   0.2500000  -0.5000000), wk =   0.0234375
        k(   64) = (   0.2500000   0.3750000   0.3750000), wk =   0.0468750
        k(   65) = (   0.2500000   0.3750000  -0.5000000), wk =   0.0468750
        k(   66) = (   0.2500000  -0.5000000  -0.5000000), wk =   0.0117188
        k(   67) = (   0.3750000   0.3750000   0.3750000), wk =   0.0156250
        k(   68) = (   0.3750000   0.3750000  -0.5000000), wk =   0.0234375
        k(   69) = (   0.3750000  -0.5000000  -0.5000000), wk =   0.0117188
        k(   70) = (  -0.5000000  -0.5000000  -0.5000000), wk =   0.0019531

     Dense  grid:    18325 G-vectors     FFT dimensions: (  36,  36,  36)

     Smooth grid:     3575 G-vectors     FFT dimensions: (  20,  20,  20)

     Largest allocated arrays     est. size (Mb)     dimensions
        Kohn-Sham Wavefunctions         0.03 Mb     (     118,   14)
        Atomic Hubbard wavefuncts       0.02 Mb     (     118,   10)
        NL pseudopotentials             0.06 Mb     (     118,   36)
        Each V/rho on FFT grid          0.36 Mb     (   11664,   2)
        Each G-vector array             0.03 Mb     (    4581)
        G-vector shells                 0.00 Mb     (     222)
     Largest temporary arrays     est. size (Mb)     dimensions
        Auxiliary wavefunctions         0.10 Mb     (     118,   56)
        Each subspace H/S matrix        0.05 Mb     (      56,   56)
        Each <psi_i|beta_j> matrix      0.01 Mb     (      36,   14)
        Arrays for rho mixing           1.42 Mb     (   11664,    8)

     The initial density is read from file :
     ./temp/fe.save/charge-density.dat

 --- in v_hubbard ---
Hubbard energy   -0.0277
 -------
     Number of +U iterations with fixed ns =  0
     Starting occupations:
 --- enter write_ns ---
 LDA+U parameters:
U( 1)     =  0.00000000
alpha( 1) = -0.05000000
U( 2)     =  0.00000000
alpha( 2) =  0.00000000
atom    1   Tr[ns(na)] (up, down, total) =   4.87792  2.65575  7.53367
   spin  1
    eigenvalues: 
  0.968  0.968  0.968  0.987  0.987
    eigenvectors:
  0.000  0.000  0.000  0.659  0.341
  0.071  0.330  0.599  0.000  0.000
  0.352  0.286  0.361  0.000  0.000
  0.000  0.000  0.000  0.341  0.659
  0.577  0.384  0.039  0.000  0.000
    occupations:
  0.987  0.000  0.000  0.000  0.000
  0.000  0.968  0.000  0.000  0.000
  0.000  0.000  0.968  0.000  0.000
  0.000  0.000  0.000  0.987  0.000
  0.000  0.000  0.000  0.000  0.968
   spin  2
    eigenvalues: 
  0.441  0.441  0.591  0.591  0.591
    eigenvectors:
  0.687  0.313  0.000  0.000  0.000
  0.000  0.000  0.072  0.434  0.494
  0.000  0.000  0.325  0.230  0.445
  0.313  0.687  0.000  0.000  0.000
  0.000  0.000  0.603  0.336  0.061
    occupations:
  0.441  0.000  0.000  0.000  0.000
  0.000  0.591  0.000  0.000  0.000
  0.000  0.000  0.591  0.000  0.000
  0.000  0.000  0.000  0.441  0.000
  0.000  0.000  0.000  0.000  0.591
atomic mag. moment =     2.222170
atom    2   Tr[ns(na)] (up, down, total) =   4.87791  2.65574  7.53365
   spin  1
    eigenvalues: 
  0.968  0.968  0.968  0.987  0.987
    eigenvectors:
  0.000  0.000  0.000  0.600  0.400
  0.071  0.294  0.635  0.000  0.000
  0.358  0.309  0.334  0.000  0.000
  0.000  0.000  0.000  0.400  0.600
  0.571  0.397  0.031  0.000  0.000
    occupations:
  0.987  0.000  0.000  0.000  0.000
  0.000  0.968  0.000  0.000  0.000
  0.000  0.000  0.968  0.000  0.000
  0.000  0.000  0.000  0.987  0.000
  0.000  0.000  0.000  0.000  0.968
   spin  2
    eigenvalues: 
  0.441  0.441  0.591  0.591  0.591
    eigenvectors:
  0.521  0.479  0.000  0.000  0.000
  0.000  0.000  0.057  0.282  0.662
  0.000  0.000  0.305  0.378  0.317
  0.479  0.521  0.000  0.000  0.000
  0.000  0.000  0.638  0.340  0.022
    occupations:
  0.441  0.000  0.000  0.000  0.000
  0.000  0.591  0.000  0.000  0.000
  0.000  0.000  0.591  0.000  0.000
  0.000  0.000  0.000  0.441  0.000
  0.000  0.000  0.000  0.000  0.591
atomic mag. moment =     2.222168
N of occupied +U levels =   15.067320
 --- exit write_ns ---
 Atomic wfc used for LDA+U Projector are NOT orthogonalized
     Starting wfc from file

     total cpu time spent up to now is        0.7 secs

     per-process dynamical memory:     9.7 Mb

     Self-consistent Calculation

     iteration #  1     ecut=    30.00 Ry     beta=0.70
     Davidson diagonalization with overlap
     ethr =  1.49E-10,  avg # of iterations =  5.3
 --- enter write_ns ---
 LDA+U parameters:
U( 1)     =  0.00000000
alpha( 1) = -0.05000000
U( 2)     =  0.00000000
alpha( 2) =  0.00000000
atom    1   Tr[ns(na)] (up, down, total) =   4.88001  2.68881  7.56882
   spin  1
    eigenvalues: 
  0.968  0.968  0.968  0.987  0.987
    eigenvectors:
  0.000  0.000  0.000  0.619  0.381
  0.069  0.377  0.554  0.000  0.000
  0.336  0.267  0.397  0.000  0.000
  0.000  0.000  0.000  0.381  0.619
  0.595  0.356  0.049  0.000  0.000
    occupations:
  0.987  0.000  0.000  0.000  0.000
  0.000  0.968  0.000  0.000  0.000
  0.000  0.000  0.968  0.000  0.000
  0.000  0.000  0.000  0.987  0.000
  0.000  0.000  0.000  0.000  0.968
   spin  2
    eigenvalues: 
  0.447  0.447  0.598  0.598  0.598
    eigenvectors:
  0.636  0.364  0.000  0.000  0.000
  0.000  0.000  0.071  0.325  0.604
  0.000  0.000  0.357  0.287  0.356
  0.364  0.636  0.000  0.000  0.000
  0.000  0.000  0.572  0.389  0.039
    occupations:
  0.447  0.000  0.000  0.000  0.000
  0.000  0.598  0.000  0.000  0.000
  0.000  0.000  0.598  0.000  0.000
  0.000  0.000  0.000  0.447  0.000
  0.000  0.000  0.000  0.000  0.598
atomic mag. moment =     2.191203
atom    2   Tr[ns(na)] (up, down, total) =   4.87657  2.62899  7.50556
   spin  1
    eigenvalues: 
  0.968  0.968  0.968  0.987  0.987
    eigenvectors:
  0.000  0.000  0.000  0.445  0.555
  0.078  0.564  0.358  0.000  0.000
  0.344  0.129  0.527  0.000  0.000
  0.000  0.000  0.000  0.555  0.445
  0.578  0.307  0.116  0.000  0.000
    occupations:
  0.987  0.000  0.000  0.000  0.000
  0.000  0.968  0.000  0.000  0.000
  0.000  0.000  0.968  0.000  0.000
  0.000  0.000  0.000  0.987  0.000
  0.000  0.000  0.000  0.000  0.968
   spin  2
    eigenvalues: 
  0.436  0.436  0.586  0.586  0.586
    eigenvectors:
  0.550  0.450  0.000  0.000  0.000
  0.000  0.000  0.078  0.619  0.303
  0.000  0.000  0.342  0.099  0.559
  0.450  0.550  0.000  0.000  0.000
  0.000  0.000  0.579  0.282  0.139
    occupations:
  0.436  0.000  0.000  0.000  0.000
  0.000  0.586  0.000  0.000  0.000
  0.000  0.000  0.586  0.000  0.000
  0.000  0.000  0.000  0.436  0.000
  0.000  0.000  0.000  0.000  0.586
atomic mag. moment =     2.247580
N of occupied +U levels =   15.074377
 --- exit write_ns ---
 --- in v_hubbard ---
Hubbard energy   -0.0278
 -------
 
     Magnetic moment per site:
     atom:    1    charge:    6.5040    magn:    2.4734    constr:    0.0000
     atom:    2    charge:    6.4648    magn:    2.5058    constr:    0.0000

     total cpu time spent up to now is        2.0 secs

     total energy              =    -111.63082486 Ry
     Harris-Foulkes estimate   =    -111.63142778 Ry
     estimated scf accuracy    <       0.00075810 Ry

     total magnetization       =     4.83 Bohr mag/cell
     absolute magnetization    =     5.16 Bohr mag/cell

     iteration #  2     ecut=    30.00 Ry     beta=0.70
     Davidson diagonalization with overlap
     ethr =  4.74E-06,  avg # of iterations =  2.9
 --- enter write_ns ---
 LDA+U parameters:
U( 1)     =  0.00000000
alpha( 1) = -0.05000000
U( 2)     =  0.00000000
alpha( 2) =  0.00000000
atom    1   Tr[ns(na)] (up, down, total) =   4.84411  2.46558  7.30969
   spin  1
    eigenvalues: 
  0.959  0.959  0.959  0.984  0.984
    eigenvectors:
  0.000  0.000  0.000  0.641  0.359
  0.072  0.465  0.463  0.000  0.000
  0.333  0.204  0.463  0.000  0.000
  0.000  0.000  0.000  0.359  0.641
  0.595  0.331  0.074  0.000  0.000
    occupations:
  0.984  0.000  0.000  0.000  0.000
  0.000  0.959  0.000  0.000  0.000
  0.000  0.000  0.959  0.000  0.000
  0.000  0.000  0.000  0.984  0.000
  0.000  0.000  0.000  0.000  0.959
   spin  2
    eigenvalues: 
  0.408  0.408  0.550  0.550  0.550
    eigenvectors:
  0.523  0.477  0.000  0.000  0.000
  0.000  0.000  0.075  0.535  0.390
  0.000  0.000  0.341  0.151  0.508
  0.477  0.523  0.000  0.000  0.000
  0.000  0.000  0.584  0.314  0.102
    occupations:
  0.408  0.000  0.000  0.000  0.000
  0.000  0.550  0.000  0.000  0.000
  0.000  0.000  0.550  0.000  0.000
  0.000  0.000  0.000  0.408  0.000
  0.000  0.000  0.000  0.000  0.550
atomic mag. moment =     2.378523
atom    2   Tr[ns(na)] (up, down, total) =   4.89450  2.85900  7.75349
   spin  1
    eigenvalues: 
  0.971  0.971  0.971  0.991  0.991
    eigenvectors:
  0.000  0.000  0.000  0.621  0.379
  0.066  0.347  0.587  0.000  0.000
  0.335  0.293  0.372  0.000  0.000
  0.000  0.000  0.000  0.379  0.621
  0.600  0.359  0.041  0.000  0.000
    occupations:
  0.991  0.000  0.000  0.000  0.000
  0.000  0.971  0.000  0.000  0.000
  0.000  0.000  0.971  0.000  0.000
  0.000  0.000  0.000  0.991  0.000
  0.000  0.000  0.000  0.000  0.971
   spin  2
    eigenvalues: 
  0.476  0.476  0.636  0.636  0.636
    eigenvectors:
  0.489  0.511  0.000  0.000  0.000
  0.000  0.000  0.069  0.304  0.627
  0.000  0.000  0.363  0.300  0.337
  0.511  0.489  0.000  0.000  0.000
  0.000  0.000  0.568  0.396  0.035
    occupations:
  0.476  0.000  0.000  0.000  0.000
  0.000  0.636  0.000  0.000  0.000
  0.000  0.000  0.636  0.000  0.000
  0.000  0.000  0.000  0.476  0.000
  0.000  0.000  0.000  0.000  0.636
atomic mag. moment =     2.035504
N of occupied +U levels =   15.063187
 --- exit write_ns ---
 --- in v_hubbard ---
Hubbard energy   -0.0277
 -------
 
     Magnetic moment per site:
     atom:    1    charge:    6.4865    magn:    2.4816    constr:    0.0000
     atom:    2    charge:    6.4819    magn:    2.4955    constr:    0.0000

     total cpu time spent up to now is        2.8 secs

     total energy              =    -111.62750172 Ry
     Harris-Foulkes estimate   =    -111.63534915 Ry
     estimated scf accuracy    <       0.06510345 Ry

     total magnetization       =     4.81 Bohr mag/cell
     absolute magnetization    =     5.13 Bohr mag/cell

     iteration #  3     ecut=    30.00 Ry     beta=0.70
     Davidson diagonalization with overlap
     ethr =  4.74E-06,  avg # of iterations =  2.7
 --- enter write_ns ---
 LDA+U parameters:
U( 1)     =  0.00000000
alpha( 1) = -0.05000000
U( 2)     =  0.00000000
alpha( 2) =  0.00000000
atom    1   Tr[ns(na)] (up, down, total) =   4.87532  2.67322  7.54854
   spin  1
    eigenvalues: 
  0.967  0.967  0.967  0.987  0.987
    eigenvectors:
  0.000  0.000  0.000  0.599  0.401
  0.078  0.513  0.409  0.000  0.000
  0.355  0.154  0.491  0.000  0.000
  0.000  0.000  0.000  0.401  0.599
  0.567  0.333  0.100  0.000  0.000
    occupations:
  0.987  0.000  0.000  0.000  0.000
  0.000  0.967  0.000  0.000  0.000
  0.000  0.000  0.967  0.000  0.000
  0.000  0.000  0.000  0.987  0.000
  0.000  0.000  0.000  0.000  0.967
   spin  2
    eigenvalues: 
  0.445  0.445  0.595  0.595  0.595
    eigenvectors:
  0.691  0.309  0.000  0.000  0.000
  0.000  0.000  0.069  0.332  0.599
  0.000  0.000  0.345  0.292  0.363
  0.309  0.691  0.000  0.000  0.000
  0.000  0.000  0.586  0.375  0.039
    occupations:
  0.445  0.000  0.000  0.000  0.000
  0.000  0.595  0.000  0.000  0.000
  0.000  0.000  0.595  0.000  0.000
  0.000  0.000  0.000  0.445  0.000
  0.000  0.000  0.000  0.000  0.595
atomic mag. moment =     2.202096
atom    2   Tr[ns(na)] (up, down, total) =   4.87673  2.64586  7.52259
   spin  1
    eigenvalues: 
  0.967  0.967  0.967  0.987  0.987
    eigenvectors:
  0.000  0.000  0.000  0.750  0.250
  0.064  0.321  0.615  0.000  0.000
  0.325  0.322  0.353  0.000  0.000
  0.000  0.000  0.000  0.250  0.750
  0.611  0.357  0.032  0.000  0.000
    occupations:
  0.987  0.000  0.000  0.000  0.000
  0.000  0.967  0.000  0.000  0.000
  0.000  0.000  0.967  0.000  0.000
  0.000  0.000  0.000  0.987  0.000
  0.000  0.000  0.000  0.000  0.967
   spin  2
    eigenvalues: 
  0.438  0.438  0.590  0.590  0.590
    eigenvectors:
  0.695  0.305  0.000  0.000  0.000
  0.000  0.000  0.069  0.543  0.388
  0.000  0.000  0.332  0.159  0.509
  0.305  0.695  0.000  0.000  0.000
  0.000  0.000  0.599  0.298  0.103
    occupations:
  0.438  0.000  0.000  0.000  0.000
  0.000  0.590  0.000  0.000  0.000
  0.000  0.000  0.590  0.000  0.000
  0.000  0.000  0.000  0.438  0.000
  0.000  0.000  0.000  0.000  0.590
atomic mag. moment =     2.230862
N of occupied +U levels =   15.071134
 --- exit write_ns ---
 --- in v_hubbard ---
Hubbard energy   -0.0277
 -------
 
     Magnetic moment per site:
     atom:    1    charge:    6.4860    magn:    2.4790    constr:    0.0000
     atom:    2    charge:    6.4812    magn:    2.4957    constr:    0.0000

     total cpu time spent up to now is        3.6 secs

     total energy              =    -111.63138375 Ry
     Harris-Foulkes estimate   =    -111.63137622 Ry
     estimated scf accuracy    <       0.00003836 Ry

     total magnetization       =     4.82 Bohr mag/cell
     absolute magnetization    =     5.15 Bohr mag/cell

     iteration #  4     ecut=    30.00 Ry     beta=0.70
     Davidson diagonalization with overlap
     ethr =  2.40E-07,  avg # of iterations =  1.3
 --- enter write_ns ---
 LDA+U parameters:
U( 1)     =  0.00000000
alpha( 1) = -0.05000000
U( 2)     =  0.00000000
alpha( 2) =  0.00000000
atom    1   Tr[ns(na)] (up, down, total) =   4.87571  2.67299  7.54870
   spin  1
    eigenvalues: 
  0.967  0.967  0.967  0.987  0.987
    eigenvectors:
  0.000  0.000  0.000  0.683  0.317
  0.071  0.491  0.437  0.000  0.000
  0.331  0.188  0.480  0.000  0.000
  0.000  0.000  0.000  0.317  0.683
  0.597  0.320  0.083  0.000  0.000
    occupations:
  0.987  0.000  0.000  0.000  0.000
  0.000  0.967  0.000  0.000  0.000
  0.000  0.000  0.967  0.000  0.000
  0.000  0.000  0.000  0.987  0.000
  0.000  0.000  0.000  0.000  0.967
   spin  2
    eigenvalues: 
  0.445  0.445  0.595  0.595  0.595
    eigenvectors:
  0.683  0.317  0.000  0.000  0.000
  0.000  0.000  0.073  0.560  0.367
  0.000  0.000  0.330  0.143  0.526
  0.317  0.683  0.000  0.000  0.000
  0.000  0.000  0.596  0.296  0.107
    occupations:
  0.445  0.000  0.000  0.000  0.000
  0.000  0.595  0.000  0.000  0.000
  0.000  0.000  0.595  0.000  0.000
  0.000  0.000  0.000  0.445  0.000
  0.000  0.000  0.000  0.000  0.595
atomic mag. moment =     2.202717
atom    2   Tr[ns(na)] (up, down, total) =   4.87764  2.64725  7.52488
   spin  1
    eigenvalues: 
  0.968  0.968  0.968  0.987  0.987
    eigenvectors:
  0.000  0.000  0.000  0.652  0.348
  0.074  0.460  0.466  0.000  0.000
  0.349  0.195  0.455  0.000  0.000
  0.000  0.000  0.000  0.348  0.652
  0.577  0.345  0.079  0.000  0.000
    occupations:
  0.987  0.000  0.000  0.000  0.000
  0.000  0.968  0.000  0.000  0.000
  0.000  0.000  0.968  0.000  0.000
  0.000  0.000  0.000  0.987  0.000
  0.000  0.000  0.000  0.000  0.968
   spin  2
    eigenvalues: 
  0.439  0.439  0.590  0.590  0.590
    eigenvectors:
  0.560  0.440  0.000  0.000  0.000
  0.000  0.000  0.069  0.447  0.484
  0.000  0.000  0.338  0.217  0.445
  0.440  0.560  0.000  0.000  0.000
  0.000  0.000  0.593  0.336  0.071
    occupations:
  0.439  0.000  0.000  0.000  0.000
  0.000  0.590  0.000  0.000  0.000
  0.000  0.000  0.590  0.000  0.000
  0.000  0.000  0.000  0.439  0.000
  0.000  0.000  0.000  0.000  0.590
atomic mag. moment =     2.230389
N of occupied +U levels =   15.073588
 --- exit write_ns ---
 --- in v_hubbard ---
Hubbard energy   -0.0277
 -------
 
     Magnetic moment per site:
     atom:    1    charge:    6.4868    magn:    2.4705    constr:    0.0000
     atom:    2    charge:    6.4806    magn:    2.4980    constr:    0.0000

     total cpu time spent up to now is        4.3 secs

     total energy              =    -111.63138605 Ry
     Harris-Foulkes estimate   =    -111.63138625 Ry
     estimated scf accuracy    <       0.00001569 Ry

     total magnetization       =     4.82 Bohr mag/cell
     absolute magnetization    =     5.15 Bohr mag/cell

     iteration #  5     ecut=    30.00 Ry     beta=0.70
     Davidson diagonalization with overlap
     ethr =  9.80E-08,  avg # of iterations =  1.0
 --- enter write_ns ---
 LDA+U parameters:
U( 1)     =  0.00000000
alpha( 1) = -0.05000000
U( 2)     =  0.00000000
alpha( 2) =  0.00000000
atom    1   Tr[ns(na)] (up, down, total) =   4.87401  2.67260  7.54661
   spin  1
    eigenvalues: 
  0.967  0.967  0.967  0.987  0.987
    eigenvectors:
  0.000  0.000  0.000  0.653  0.347
  0.076  0.436  0.488  0.000  0.000
  0.346  0.211  0.443  0.000  0.000
  0.000  0.000  0.000  0.347  0.653
  0.579  0.353  0.069  0.000  0.000
    occupations:
  0.987  0.000  0.000  0.000  0.000
  0.000  0.967  0.000  0.000  0.000
  0.000  0.000  0.967  0.000  0.000
  0.000  0.000  0.000  0.987  0.000
  0.000  0.000  0.000  0.000  0.967
   spin  2
    eigenvalues: 
  0.444  0.444  0.595  0.595  0.595
    eigenvectors:
  0.556  0.444  0.000  0.000  0.000
  0.000  0.000  0.072  0.334  0.594
  0.000  0.000  0.355  0.280  0.366
  0.444  0.556  0.000  0.000  0.000
  0.000  0.000  0.573  0.386  0.041
    occupations:
  0.444  0.000  0.000  0.000  0.000
  0.000  0.595  0.000  0.000  0.000
  0.000  0.000  0.595  0.000  0.000
  0.000  0.000  0.000  0.444  0.000
  0.000  0.000  0.000  0.000  0.595
atomic mag. moment =     2.201410
atom    2   Tr[ns(na)] (up, down, total) =   4.87753  2.64990  7.52744
   spin  1
    eigenvalues: 
  0.968  0.968  0.968  0.987  0.987
    eigenvectors:
  0.000  0.000  0.000  0.567  0.433
  0.079  0.543  0.378  0.000  0.000
  0.340  0.142  0.518  0.000  0.000
  0.000  0.000  0.000  0.433  0.567
  0.581  0.315  0.105  0.000  0.000
    occupations:
  0.987  0.000  0.000  0.000  0.000
  0.000  0.968  0.000  0.000  0.000
  0.000  0.000  0.968  0.000  0.000
  0.000  0.000  0.000  0.987  0.000
  0.000  0.000  0.000  0.000  0.968
   spin  2
    eigenvalues: 
  0.439  0.439  0.591  0.591  0.591
    eigenvectors:
  0.550  0.450  0.000  0.000  0.000
  0.000  0.000  0.069  0.425  0.506
  0.000  0.000  0.338  0.232  0.430
  0.450  0.550  0.000  0.000  0.000
  0.000  0.000  0.593  0.343  0.064
    occupations:
  0.439  0.000  0.000  0.000  0.000
  0.000  0.591  0.000  0.000  0.000
  0.000  0.000  0.591  0.000  0.000
  0.000  0.000  0.000  0.439  0.000
  0.000  0.000  0.000  0.000  0.591
atomic mag. moment =     2.227633
N of occupied +U levels =   15.074046
 --- exit write_ns ---
 --- in v_hubbard ---
Hubbard energy   -0.0277
 -------
 
     Magnetic moment per site:
     atom:    1    charge:    6.4869    magn:    2.4689    constr:    0.0000
     atom:    2    charge:    6.4806    magn:    2.4979    constr:    0.0000

     total cpu time spent up to now is        4.9 secs

     total energy              =    -111.63138807 Ry
     Harris-Foulkes estimate   =    -111.63138792 Ry
     estimated scf accuracy    <       0.00000009 Ry

     total magnetization       =     4.82 Bohr mag/cell
     absolute magnetization    =     5.15 Bohr mag/cell

     iteration #  6     ecut=    30.00 Ry     beta=0.70
     Davidson diagonalization with overlap
     ethr =  5.92E-10,  avg # of iterations =  3.3
 --- enter write_ns ---
 LDA+U parameters:
U( 1)     =  0.00000000
alpha( 1) = -0.05000000
U( 2)     =  0.00000000
alpha( 2) =  0.00000000
atom    1   Tr[ns(na)] (up, down, total) =   4.87367  2.67303  7.54670
   spin  1
    eigenvalues: 
  0.967  0.967  0.967  0.987  0.987
    eigenvectors:
  0.000  0.000  0.000  0.645  0.355
  0.078  0.514  0.408  0.000  0.000
  0.354  0.154  0.492  0.000  0.000
  0.000  0.000  0.000  0.355  0.645
  0.568  0.332  0.100  0.000  0.000
    occupations:
  0.987  0.000  0.000  0.000  0.000
  0.000  0.967  0.000  0.000  0.000
  0.000  0.000  0.967  0.000  0.000
  0.000  0.000  0.000  0.987  0.000
  0.000  0.000  0.000  0.000  0.967
   spin  2
    eigenvalues: 
  0.444  0.444  0.595  0.595  0.595
    eigenvectors:
  0.646  0.354  0.000  0.000  0.000
  0.000  0.000  0.069  0.476  0.455
  0.000  0.000  0.316  0.211  0.474
  0.354  0.646  0.000  0.000  0.000
  0.000  0.000  0.616  0.313  0.071
    occupations:
  0.444  0.000  0.000  0.000  0.000
  0.000  0.595  0.000  0.000  0.000
  0.000  0.000  0.595  0.000  0.000
  0.000  0.000  0.000  0.444  0.000
  0.000  0.000  0.000  0.000  0.595
atomic mag. moment =     2.200640
atom    2   Tr[ns(na)] (up, down, total) =   4.87737  2.65011  7.52749
   spin  1
    eigenvalues: 
  0.968  0.968  0.968  0.987  0.987
    eigenvectors:
  0.000  0.000  0.000  0.535  0.465
  0.072  0.372  0.556  0.000  0.000
  0.361  0.249  0.390  0.000  0.000
  0.000  0.000  0.000  0.465  0.535
  0.567  0.379  0.054  0.000  0.000
    occupations:
  0.987  0.000  0.000  0.000  0.000
  0.000  0.968  0.000  0.000  0.000
  0.000  0.000  0.968  0.000  0.000
  0.000  0.000  0.000  0.987  0.000
  0.000  0.000  0.000  0.000  0.968
   spin  2
    eigenvalues: 
  0.439  0.439  0.591  0.591  0.591
    eigenvectors:
  0.640  0.360  0.000  0.000  0.000
  0.000  0.000  0.068  0.363  0.569
  0.000  0.000  0.334  0.279  0.387
  0.360  0.640  0.000  0.000  0.000
  0.000  0.000  0.598  0.358  0.044
    occupations:
  0.439  0.000  0.000  0.000  0.000
  0.000  0.591  0.000  0.000  0.000
  0.000  0.000  0.591  0.000  0.000
  0.000  0.000  0.000  0.439  0.000
  0.000  0.000  0.000  0.000  0.591
atomic mag. moment =     2.227261
N of occupied +U levels =   15.074187
 --- exit write_ns ---
 --- in v_hubbard ---
Hubbard energy   -0.0277
 -------
 
     Magnetic moment per site:
     atom:    1    charge:    6.4869    magn:    2.4673    constr:    0.0000
     atom:    2    charge:    6.4807    magn:    2.4972    constr:    0.0000

     total cpu time spent up to now is        5.7 secs

     total energy              =    -111.63138820 Ry
     Harris-Foulkes estimate   =    -111.63138817 Ry
     estimated scf accuracy    <       0.00000006 Ry

     total magnetization       =     4.82 Bohr mag/cell
     absolute magnetization    =     5.15 Bohr mag/cell

     iteration #  7     ecut=    30.00 Ry     beta=0.70
     Davidson diagonalization with overlap
     ethr =  4.06E-10,  avg # of iterations =  1.7
 --- enter write_ns ---
 LDA+U parameters:
U( 1)     =  0.00000000
alpha( 1) = -0.05000000
U( 2)     =  0.00000000
alpha( 2) =  0.00000000
atom    1   Tr[ns(na)] (up, down, total) =   4.87330  2.67357  7.54687
   spin  1
    eigenvalues: 
  0.967  0.967  0.967  0.987  0.987
    eigenvectors:
  0.000  0.000  0.000  0.655  0.345
  0.071  0.411  0.517  0.000  0.000
  0.344  0.235  0.422  0.000  0.000
  0.000  0.000  0.000  0.345  0.655
  0.585  0.354  0.061  0.000  0.000
    occupations:
  0.987  0.000  0.000  0.000  0.000
  0.000  0.967  0.000  0.000  0.000
  0.000  0.000  0.967  0.000  0.000
  0.000  0.000  0.000  0.987  0.000
  0.000  0.000  0.000  0.000  0.967
   spin  2
    eigenvalues: 
  0.444  0.444  0.595  0.595  0.595
    eigenvectors:
  0.732  0.268  0.000  0.000  0.000
  0.000  0.000  0.069  0.294  0.637
  0.000  0.000  0.356  0.311  0.332
  0.268  0.732  0.000  0.000  0.000
  0.000  0.000  0.574  0.394  0.031
    occupations:
  0.444  0.000  0.000  0.000  0.000
  0.000  0.595  0.000  0.000  0.000
  0.000  0.000  0.595  0.000  0.000
  0.000  0.000  0.000  0.444  0.000
  0.000  0.000  0.000  0.000  0.595
atomic mag. moment =     2.199722
atom    2   Tr[ns(na)] (up, down, total) =   4.87708  2.65046  7.52755
   spin  1
    eigenvalues: 
  0.967  0.967  0.967  0.987  0.987
    eigenvectors:
  0.000  0.000  0.000  0.665  0.335
  0.075  0.508  0.417  0.000  0.000
  0.346  0.166  0.488  0.000  0.000
  0.000  0.000  0.000  0.335  0.665
  0.579  0.327  0.094  0.000  0.000
    occupations:
  0.987  0.000  0.000  0.000  0.000
  0.000  0.967  0.000  0.000  0.000
  0.000  0.000  0.967  0.000  0.000
  0.000  0.000  0.000  0.987  0.000
  0.000  0.000  0.000  0.000  0.967
   spin  2
    eigenvalues: 
  0.439  0.439  0.591  0.591  0.591
    eigenvectors:
  0.493  0.507  0.000  0.000  0.000
  0.000  0.000  0.075  0.694  0.231
  0.000  0.000  0.342  0.064  0.594
  0.507  0.493  0.000  0.000  0.000
  0.000  0.000  0.583  0.242  0.174
    occupations:
  0.439  0.000  0.000  0.000  0.000
  0.000  0.591  0.000  0.000  0.000
  0.000  0.000  0.591  0.000  0.000
  0.000  0.000  0.000  0.439  0.000
  0.000  0.000  0.000  0.000  0.591
atomic mag. moment =     2.226622
N of occupied +U levels =   15.074416
 --- exit write_ns ---
 --- in v_hubbard ---
Hubbard energy   -0.0277
 -------
 
     Magnetic moment per site:
     atom:    1    charge:    6.4869    magn:    2.4666    constr:    0.0000
     atom:    2    charge:    6.4807    magn:    2.4965    constr:    0.0000

     total cpu time spent up to now is        6.4 secs

     total energy              =    -111.63138828 Ry
     Harris-Foulkes estimate   =    -111.63138827 Ry
     estimated scf accuracy    <       0.00000004 Ry

     total magnetization       =     4.82 Bohr mag/cell
     absolute magnetization    =     5.14 Bohr mag/cell

     iteration #  8     ecut=    30.00 Ry     beta=0.70
     Davidson diagonalization with overlap
     ethr =  2.41E-10,  avg # of iterations =  1.6
 --- enter write_ns ---
 LDA+U parameters:
U( 1)     =  0.00000000
alpha( 1) = -0.05000000
U( 2)     =  0.00000000
alpha( 2) =  0.00000000
atom    1   Tr[ns(na)] (up, down, total) =   4.87312  2.67385  7.54697
   spin  1
    eigenvalues: 
  0.967  0.967  0.967  0.987  0.987
    eigenvectors:
  0.000  0.000  0.000  0.627  0.373
  0.072  0.455  0.472  0.000  0.000
  0.346  0.203  0.452  0.000  0.000
  0.000  0.000  0.000  0.373  0.627
  0.582  0.342  0.076  0.000  0.000
    occupations:
  0.987  0.000  0.000  0.000  0.000
  0.000  0.967  0.000  0.000  0.000
  0.000  0.000  0.967  0.000  0.000
  0.000  0.000  0.000  0.987  0.000
  0.000  0.000  0.000  0.000  0.967
   spin  2
    eigenvalues: 
  0.444  0.444  0.595  0.595  0.595
    eigenvectors:
  0.752  0.248  0.000  0.000  0.000
  0.000  0.000  0.076  0.626  0.298
  0.000  0.000  0.328  0.103  0.569
  0.248  0.752  0.000  0.000  0.000
  0.000  0.000  0.596  0.271  0.133
    occupations:
  0.444  0.000  0.000  0.000  0.000
  0.000  0.595  0.000  0.000  0.000
  0.000  0.000  0.595  0.000  0.000
  0.000  0.000  0.000  0.444  0.000
  0.000  0.000  0.000  0.000  0.595
atomic mag. moment =     2.199275
atom    2   Tr[ns(na)] (up, down, total) =   4.87691  2.65071  7.52762
   spin  1
    eigenvalues: 
  0.967  0.967  0.967  0.987  0.987
    eigenvectors:
  0.000  0.000  0.000  0.566  0.434
  0.073  0.429  0.498  0.000  0.000
  0.339  0.223  0.437  0.000  0.000
  0.000  0.000  0.000  0.434  0.566
  0.588  0.348  0.065  0.000  0.000
    occupations:
  0.987  0.000  0.000  0.000  0.000
  0.000  0.967  0.000  0.000  0.000
  0.000  0.000  0.967  0.000  0.000
  0.000  0.000  0.000  0.987  0.000
  0.000  0.000  0.000  0.000  0.967
   spin  2
    eigenvalues: 
  0.439  0.439  0.591  0.591  0.591
    eigenvectors:
  0.577  0.423  0.000  0.000  0.000
  0.000  0.000  0.073  0.538  0.389
  0.000  0.000  0.336  0.155  0.509
  0.423  0.577  0.000  0.000  0.000
  0.000  0.000  0.591  0.307  0.102
    occupations:
  0.439  0.000  0.000  0.000  0.000
  0.000  0.591  0.000  0.000  0.000
  0.000  0.000  0.591  0.000  0.000
  0.000  0.000  0.000  0.439  0.000
  0.000  0.000  0.000  0.000  0.591
atomic mag. moment =     2.226196
N of occupied +U levels =   15.074593
 --- exit write_ns ---
 --- in v_hubbard ---
Hubbard energy   -0.0277
 -------
 
     Magnetic moment per site:
     atom:    1    charge:    6.4869    magn:    2.4661    constr:    0.0000
     atom:    2    charge:    6.4807    magn:    2.4956    constr:    0.0000

     total cpu time spent up to now is        7.0 secs

     total energy              =    -111.63138829 Ry
     Harris-Foulkes estimate   =    -111.63138831 Ry
     estimated scf accuracy    <       0.00000002 Ry

     total magnetization       =     4.82 Bohr mag/cell
     absolute magnetization    =     5.14 Bohr mag/cell

     iteration #  9     ecut=    30.00 Ry     beta=0.70
     Davidson diagonalization with overlap
     ethr =  1.13E-10,  avg # of iterations =  1.9
 --- enter write_ns ---
 LDA+U parameters:
U( 1)     =  0.00000000
alpha( 1) = -0.05000000
U( 2)     =  0.00000000
alpha( 2) =  0.00000000
atom    1   Tr[ns(na)] (up, down, total) =   4.87295  2.67417  7.54712
   spin  1
    eigenvalues: 
  0.966  0.966  0.966  0.987  0.987
    eigenvectors:
  0.000  0.000  0.000  0.609  0.391
  0.070  0.376  0.555  0.000  0.000
  0.345  0.260  0.395  0.000  0.000
  0.000  0.000  0.000  0.391  0.609
  0.585  0.364  0.051  0.000  0.000
    occupations:
  0.987  0.000  0.000  0.000  0.000
  0.000  0.966  0.000  0.000  0.000
  0.000  0.000  0.966  0.000  0.000
  0.000  0.000  0.000  0.987  0.000
  0.000  0.000  0.000  0.000  0.966
   spin  2
    eigenvalues: 
  0.444  0.444  0.595  0.595  0.595
    eigenvectors:
  0.521  0.479  0.000  0.000  0.000
  0.000  0.000  0.070  0.332  0.598
  0.000  0.000  0.380  0.266  0.354
  0.479  0.521  0.000  0.000  0.000
  0.000  0.000  0.550  0.402  0.048
    occupations:
  0.444  0.000  0.000  0.000  0.000
  0.000  0.595  0.000  0.000  0.000
  0.000  0.000  0.595  0.000  0.000
  0.000  0.000  0.000  0.444  0.000
  0.000  0.000  0.000  0.000  0.595
atomic mag. moment =     2.198777
atom    2   Tr[ns(na)] (up, down, total) =   4.87669  2.65095  7.52764
   spin  1
    eigenvalues: 
  0.967  0.967  0.967  0.987  0.987
    eigenvectors:
  0.000  0.000  0.000  0.663  0.337
  0.069  0.364  0.567  0.000  0.000
  0.347  0.269  0.385  0.000  0.000
  0.000  0.000  0.000  0.337  0.663
  0.584  0.368  0.048  0.000  0.000
    occupations:
  0.987  0.000  0.000  0.000  0.000
  0.000  0.967  0.000  0.000  0.000
  0.000  0.000  0.967  0.000  0.000
  0.000  0.000  0.000  0.987  0.000
  0.000  0.000  0.000  0.000  0.967
   spin  2
    eigenvalues: 
  0.439  0.439  0.591  0.591  0.591
    eigenvectors:
  0.631  0.369  0.000  0.000  0.000
  0.000  0.000  0.070  0.520  0.410
  0.000  0.000  0.316  0.180  0.504
  0.369  0.631  0.000  0.000  0.000
  0.000  0.000  0.614  0.300  0.086
    occupations:
  0.439  0.000  0.000  0.000  0.000
  0.000  0.591  0.000  0.000  0.000
  0.000  0.000  0.591  0.000  0.000
  0.000  0.000  0.000  0.439  0.000
  0.000  0.000  0.000  0.000  0.591
atomic mag. moment =     2.225744
N of occupied +U levels =   15.074755
 --- exit write_ns ---
 --- in v_hubbard ---
Hubbard energy   -0.0277
 -------
 
     Magnetic moment per site:
     atom:    1    charge:    6.4869    magn:    2.4660    constr:    0.0000
     atom:    2    charge:    6.4807    magn:    2.4956    constr:    0.0000

     total cpu time spent up to now is        7.7 secs

     End of self-consistent calculation

 ------ SPIN UP ------------


          k = 0.0000 0.0000 0.0000 (   461 PWs)   bands (ev):

     4.7366   8.1701   8.1701  10.5145  10.5145  10.5145  11.6971  11.6971
    12.7959  12.7959  12.7959  22.6893  22.6893  22.6893

     occupation numbers 
     1.0000   1.0000   1.0000   1.0000   1.0000   1.0000   1.0000   1.0000
     0.9279   0.9279   0.9279   0.0000   0.0000   0.0000

          k = 0.0000 0.0000 0.1250 (   449 PWs)   bands (ev):

     5.0518   8.3002   8.3044  10.5157  10.5157  10.5983  11.5631  11.7497
    12.5558  12.5558  12.7056  20.7537  23.2621  23.2621

     occupation numbers 
     1.0000   1.0000   1.0000   1.0000   1.0000   1.0000   1.0000   1.0000
     1.0019   1.0019   1.0350   0.0000   0.0000   0.0000

          k = 0.0000 0.0000 0.2500 (   445 PWs)   bands (ev):

     5.9480   8.6179   8.6736  10.5444  10.5444  10.8367  11.1790  11.9018
    12.0014  12.0014  12.4498  17.6289  24.8034  24.8034

     occupation numbers 
     1.0000   1.0000   1.0000   1.0000   1.0000   1.0000   1.0000   1.0000
     1.0000   1.0000   1.0000   0.0000   0.0000   0.0000

          k = 0.0000 0.0000 0.3750 (   438 PWs)   bands (ev):

     7.2358   8.8200   9.2402  10.6003  10.6672  10.6672  11.1980  11.4092
    11.4092  12.0712  12.2022  14.8507  26.9980  26.9980

     occupation numbers 
     1.0000   1.0000   1.0000   1.0000   1.0000   1.0000   1.0000   1.0000
     1.0000   1.0000   1.0000   0.0000   0.0000   0.0000

          k = 0.0000 0.0000-0.5000 (   466 PWs)   bands (ev):

     8.4023   8.4202   9.9127   9.9216  10.9393  10.9393  10.9543  10.9543
    11.6185  11.6428  12.9748  13.0142  29.6030  29.6031

     occupation numbers 
     1.0000   1.0000   1.0000   1.0000   1.0000   1.0000   1.0000   1.0000
     1.0000   1.0000   0.0412  -0.0237   0.0000   0.0000

          k = 0.0000 0.1250 0.1250 (   451 PWs)   bands (ev):

     5.3572   8.4120   8.4481  10.3572  10.4919  10.8364  11.5671  11.7110
    12.1499  12.3208  12.8327  20.8543  21.6487  23.7848

     occupation numbers 
     1.0000   1.0000   1.0000   1.0000   1.0000   1.0000   1.0000   1.0000
     1.0000   1.0000   0.7752   0.0000   0.0000   0.0000

          k = 0.0000 0.1250 0.2500 (   438 PWs)   bands (ev):

     6.2178   8.6916   8.8192  10.2635  10.4547  11.1856  11.3379  11.5390
    11.8100  11.8441  12.7396  17.9710  22.6511  25.2243

     occupation numbers 
     1.0000   1.0000   1.0000   1.0000   1.0000   1.0000   1.0000   1.0000
     1.0000   1.0000   1.0281   0.0000   0.0000   0.0000

          k = 0.0000 0.1250 0.3750 (   440 PWs)   bands (ev):

     7.4197   8.8681   9.3212  10.3083  10.3294  10.9601  11.1151  11.3675
    11.5991  12.1610  12.4453  15.1277  24.4130  27.3276

     occupation numbers 
     1.0000   1.0000   1.0000   1.0000   1.0000   1.0000   1.0000   1.0000
     1.0000   1.0000   1.0000   0.0000   0.0000   0.0000

          k = 0.0000 0.1250-0.5000 (   448 PWs)   bands (ev):

     8.4682   8.4772   9.8835   9.8893  10.5339  10.5377  11.1620  11.1714
    12.0330  12.0447  13.0767  13.1110  26.4737  26.4797

     occupation numbers 
     1.0000   1.0000   1.0000   1.0000   1.0000   1.0000   1.0000   1.0000
     1.0000   1.0000  -0.0300  -0.0186   0.0000   0.0000

          k = 0.0000 0.2500 0.2500 (   441 PWs)   bands (ev):

     6.9344   8.7605   9.2776   9.9914  10.4347  10.8921  11.4773  11.5359
    11.6718  11.7601  12.9224  17.9678  20.4996  26.4327

     occupation numbers 
     1.0000   1.0000   1.0000   1.0000   1.0000   1.0000   1.0000   1.0000
     1.0000   1.0000   0.2500   0.0000   0.0000   0.0000

          k = 0.0000 0.2500 0.3750 (   445 PWs)   bands (ev):

     7.7820   8.6942   9.8459   9.8878  10.3479  10.5638  11.3674  11.5415
    12.0361  12.1497  12.8464  15.6340  21.4250  25.6228

     occupation numbers 
     1.0000   1.0000   1.0000   1.0000   1.0000   1.0000   1.0000   1.0000
     1.0000   1.0000   0.7018   0.0000   0.0000   0.0000

          k = 0.0000 0.2500-0.5000 (   446 PWs)   bands (ev):

     8.3819   8.3884  10.0020  10.0024  10.3372  10.3440  11.4903  11.4918
    12.5612  12.5662  13.3281  13.3499  23.2969  23.3001

     occupation numbers 
     1.0000   1.0000   1.0000   1.0000   1.0000   1.0000   1.0000   1.0000
     1.0023   1.0026   0.0000   0.0000   0.0000   0.0000

          k = 0.0000 0.3750 0.3750 (   442 PWs)   bands (ev):

     8.0102   8.4045   9.6426   9.8771  10.6155  11.4840  11.5068  11.8324
    11.8962  12.6165  13.0125  15.2804  20.0185  22.9181

     occupation numbers 
     1.0000   1.0000   1.0000   1.0000   1.0000   1.0000   1.0000   1.0000
     1.0000   1.0098  -0.0222   0.0000   0.0000   0.0000

          k = 0.0000 0.3750-0.5000 (   436 PWs)   bands (ev):

     8.1642   8.1772   9.6331   9.6332  11.2739  11.2926  11.6877  11.6988
    12.9232  12.9245  13.5386  13.5471  20.8840  20.8848

     occupation numbers 
     1.0000   1.0000   1.0000   1.0000   1.0000   1.0000   1.0000   1.0000
     0.2456   0.2388   0.0000   0.0000   0.0000   0.0000

          k = 0.0000-0.5000-0.5000 (   428 PWs)   bands (ev):

     8.0694   8.0840   9.5029   9.5029  11.7387  11.7523  11.8546  11.8846
    13.0504  13.0504  13.5643  13.5643  19.9078  19.9113

     occupation numbers 
     1.0000   1.0000   1.0000   1.0000   1.0000   1.0000   1.0000   1.0000
    -0.0353  -0.0353   0.0000   0.0000   0.0000   0.0000

          k = 0.1250 0.1250 0.1250 (   446 PWs)   bands (ev):

     5.6556   8.5552   8.5552  10.3238  10.3238  11.0870  11.6335  11.6335
    11.6423  12.5945  12.5945  21.3518  21.3518  22.4082

     occupation numbers 
     1.0000   1.0000   1.0000   1.0000   1.0000   1.0000   1.0000   1.0000
     1.0000   1.0057   1.0057   0.0000   0.0000   0.0000

          k = 0.1250 0.1250 0.2500 (   438 PWs)   bands (ev):

     6.4888   8.8564   8.8782  10.1906  10.2320  11.0190  11.4304  11.5123
    11.8039  12.0651  12.6407  18.3461  22.6429  23.3194

     occupation numbers 
     1.0000   1.0000   1.0000   1.0000   1.0000   1.0000   1.0000   1.0000
     1.0000   1.0000   1.0161   0.0000   0.0000   0.0000

          k = 0.1250 0.1250 0.3750 (   443 PWs)   bands (ev):

     7.6230   9.0212   9.2891  10.0665  10.2655  10.6153  11.2229  11.5448
    11.8810  12.2381  12.4442  15.4810  24.3891  24.9561

     occupation numbers 
     1.0000   1.0000   1.0000   1.0000   1.0000   1.0000   1.0000   1.0000
     1.0000   1.0000   1.0000   0.0000   0.0000   0.0000

          k = 0.1250 0.1250-0.5000 (   448 PWs)   bands (ev):

     8.5895   8.5921   9.7389   9.7436  10.4661  10.4683  11.2288  11.2350
    12.1296  12.1469  13.3650  13.3879  26.3773  26.3871

     occupation numbers 
     1.0000   1.0000   1.0000   1.0000   1.0000   1.0000   1.0000   1.0000
     1.0000   1.0000   0.0000   0.0000   0.0000   0.0000

          k = 0.1250 0.2500 0.2500 (   435 PWs)   bands (ev):

     7.2060   8.9485   9.3153   9.9375  10.1522  10.4307  11.5766  11.7480
    11.8401  12.0730  12.6665  18.5007  20.5923  23.9986

     occupation numbers 
     1.0000   1.0000   1.0000   1.0000   1.0000   1.0000   1.0000   1.0000
     1.0000   1.0000   1.0245   0.0000   0.0000   0.0000

          k = 0.1250 0.2500 0.3750 (   441 PWs)   bands (ev):

     8.0298   8.8922   9.7175   9.8134  10.1933  10.2830  11.5256  11.5659
    11.9188  12.5787  12.7643  16.1622  21.5781  25.4486

     occupation numbers 
     1.0000   1.0000   1.0000   1.0000   1.0000   1.0000   1.0000   1.0000
     1.0000   1.0038   1.0018   0.0000   0.0000   0.0000

          k = 0.1250 0.2500-0.5000 (   440 PWs)   bands (ev):

     8.5807   8.5900   9.7794   9.7820  10.3584  10.3604  11.5101  11.5121
    12.2503  12.2694  13.9956  14.0043  23.4658  23.4696

     occupation numbers 
     1.0000   1.0000   1.0000   1.0000   1.0000   1.0000   1.0000   1.0000
     1.0000   1.0000   0.0000   0.0000   0.0000   0.0000

          k = 0.1250 0.3750 0.3750 (   445 PWs)   bands (ev):

     8.2526   8.5959   9.6059   9.7664  10.5282  10.9754  11.6078  11.7130
    11.8375  12.6030  13.4959  16.0708  20.0811  23.0844

     occupation numbers 
     1.0000   1.0000   1.0000   1.0000   1.0000   1.0000   1.0000   1.0000
     1.0000   1.0071   0.0000   0.0000   0.0000   0.0000

          k = 0.1250 0.3750-0.5000 (   440 PWs)   bands (ev):

     8.3723   8.3860   9.5868   9.5871  11.1021  11.1141  11.7054  11.7164
    12.2467  12.2624  14.6409  14.6425  21.0028  21.0032

     occupation numbers 
     1.0000   1.0000   1.0000   1.0000   1.0000   1.0000   1.0000   1.0000
     1.0000   1.0000   0.0000   0.0000   0.0000   0.0000

          k = 0.1250-0.5000-0.5000 (   444 PWs)   bands (ev):

     8.2773   8.2920   9.4787   9.4787  11.7644  11.7791  11.8594  11.8894
    11.9277  11.9277  14.9686  14.9686  19.9637  19.9671

     occupation numbers 
     1.0000   1.0000   1.0000   1.0000   1.0000   1.0000   1.0000   1.0000
     1.0000   1.0000   0.0000   0.0000   0.0000   0.0000

          k = 0.2500 0.2500 0.2500 (   443 PWs)   bands (ev):

     7.9138   9.4073   9.4073   9.8105   9.8105   9.8345  11.7080  11.7080
    12.1750  12.1750  12.7974  19.8282  19.8282  22.0520

     occupation numbers 
     1.0000   1.0000   1.0000   1.0000   1.0000   1.0000   1.0000   1.0000
     1.0000   1.0000   0.9233   0.0000   0.0000   0.0000

          k = 0.2500 0.2500 0.3750 (   445 PWs)   bands (ev):

     8.6122   9.2572   9.5056   9.6810   9.8888  10.0261  11.6527  11.7982
    11.8706  12.2350  13.6895  17.2436  21.6062  22.8397

     occupation numbers 
     1.0000   1.0000   1.0000   1.0000   1.0000   1.0000   1.0000   1.0000
     1.0000   1.0000   0.0000   0.0000   0.0000   0.0000

          k = 0.2500 0.2500-0.5000 (   442 PWs)   bands (ev):

     8.9253   8.9394   9.5847   9.5887  10.2182  10.2190  11.6423  11.6500
    12.0537  12.0779  15.0706  15.0718  23.6878  23.6915

     occupation numbers 
     1.0000   1.0000   1.0000   1.0000   1.0000   1.0000   1.0000   1.0000
     1.0000   1.0000   0.0000   0.0000   0.0000   0.0000

          k = 0.2500 0.3750 0.3750 (   438 PWs)   bands (ev):

     8.8910   9.0254   9.5345   9.6264  10.1753  10.2557  11.7730  11.8055
    11.8474  12.1244  14.7591  17.6937  20.2449  23.5558

     occupation numbers 
     1.0000   1.0000   1.0000   1.0000   1.0000   1.0000   1.0000   1.0000
     1.0000   1.0000   0.0000   0.0000   0.0000   0.0000

          k = 0.2500 0.3750-0.5000 (   442 PWs)   bands (ev):

     8.8831   8.8969   9.5232   9.5245  10.5326  10.5356  11.7786  11.7940
    11.9532  11.9786  16.1785  16.1797  21.4252  21.4253

     occupation numbers 
     1.0000   1.0000   1.0000   1.0000   1.0000   1.0000   1.0000   1.0000
     1.0000   1.0000   0.0000   0.0000   0.0000   0.0000

          k = 0.2500-0.5000-0.5000 (   436 PWs)   bands (ev):

     8.8134   8.8273   9.4423   9.4423  10.8826  10.8826  11.8238  11.8424
    11.8710  11.9011  16.8560  16.8560  20.1897  20.1932

     occupation numbers 
     1.0000   1.0000   1.0000   1.0000   1.0000   1.0000   1.0000   1.0000
     1.0000   1.0000   0.0000   0.0000   0.0000   0.0000

          k = 0.3750 0.3750 0.3750 (   450 PWs)   bands (ev):

     9.1816   9.5127   9.5127   9.7316   9.8950   9.8950  11.8516  11.8516
    11.9192  11.9192  16.1353  19.6845  19.6845  22.0127

     occupation numbers 
     1.0000   1.0000   1.0000   1.0000   1.0000   1.0000   1.0000   1.0000
     1.0000   1.0000   0.0000   0.0000   0.0000   0.0000

          k = 0.3750 0.3750-0.5000 (   452 PWs)   bands (ev):

     9.2603   9.2681   9.6204   9.6264  10.0787  10.0788  11.8511  11.8738
    11.8954  11.9230  17.7884  17.7904  21.9395  21.9454

     occupation numbers 
     1.0000   1.0000   1.0000   1.0000   1.0000   1.0000   1.0000   1.0000
     1.0000   1.0000   0.0000   0.0000   0.0000   0.0000

          k = 0.3750-0.5000-0.5000 (   440 PWs)   bands (ev):

     9.4106   9.4206   9.4786   9.4786  10.1383  10.1383  11.8729  11.8830
    11.8986  11.9132  18.9870  18.9870  20.7291  20.7340

     occupation numbers 
     1.0000   1.0000   1.0000   1.0000   1.0000   1.0000   1.0000   1.0000
     1.0000   1.0000   0.0000   0.0000   0.0000   0.0000

          k =-0.5000-0.5000-0.5000 (   432 PWs)   bands (ev):

     9.6817   9.6817   9.6817   9.6886   9.6886   9.6886  11.8878  11.8878
    11.9180  11.9180  21.3301  21.3301  21.3301  21.3410

     occupation numbers 
     1.0000   1.0000   1.0000   1.0000   1.0000   1.0000   1.0000   1.0000
     1.0000   1.0000   0.0000   0.0000   0.0000   0.0000

 ------ SPIN DOWN ----------


          k = 0.0000 0.0000 0.0000 (   461 PWs)   bands (ev):

     4.8130  10.2368  10.2368  12.9181  12.9181  12.9181  14.8497  14.8497
    15.5461  15.5461  15.5461  22.8958  22.8958  22.8958

     occupation numbers 
     1.0000   1.0000   1.0000   0.2730   0.2730   0.2730   0.0000   0.0000
     0.0000   0.0000   0.0000   0.0000   0.0000   0.0000

          k = 0.0000 0.0000 0.1250 (   449 PWs)   bands (ev):

     5.1299  10.3320  10.3975  12.9043  12.9043  13.0134  14.6650  14.9192
    15.2044  15.2044  15.4406  21.3032  23.5739  23.5739

     occupation numbers 
     1.0000   1.0000   1.0000   0.3512   0.3512  -0.0230   0.0000   0.0000
     0.0000   0.0000   0.0000   0.0000   0.0000   0.0000

          k = 0.0000 0.0000 0.2500 (   445 PWs)   bands (ev):

     6.0428  10.4590  10.8623  12.8979  12.8979  13.2850  14.1387  14.4795
    14.4795  15.0970  15.1427  18.6737  25.2960  25.2960

     occupation numbers 
     1.0000   1.0000   1.0000   0.3899   0.3899  -0.0001   0.0000   0.0000
     0.0000   0.0000   0.0000   0.0000   0.0000   0.0000

          k = 0.0000 0.0000 0.3750 (   438 PWs)   bands (ev):

     7.4246  10.1357  11.5786  12.9885  12.9885  13.3568  13.6981  13.7727
    13.7727  14.7033  15.3294  16.6536  27.6175  27.6175

     occupation numbers 
     1.0000   1.0000   1.0000   0.0106   0.0106   0.0000   0.0000   0.0000
     0.0000   0.0000   0.0000   0.0000   0.0000   0.0000

          k = 0.0000 0.0000-0.5000 (   466 PWs)   bands (ev):

     8.9704   8.9942  12.4401  12.4659  13.2554  13.2554  13.2723  13.2723
    14.1902  14.1994  15.6897  15.6936  30.2700  30.2700

     occupation numbers 
     1.0000   1.0000   1.0000   1.0001  -0.0003  -0.0003  -0.0002  -0.0002
     0.0000   0.0000   0.0000   0.0000   0.0000   0.0000

          k = 0.0000 0.1250 0.1250 (   451 PWs)   bands (ev):

     5.4395  10.4804  10.4960  12.7173  12.8583  13.2782  14.6598  14.7009
    14.8670  14.8741  15.5887  21.5035  22.2892  24.1623

     occupation numbers 
     1.0000   1.0000   1.0000   1.0353   0.6328  -0.0001   0.0000   0.0000
     0.0000   0.0000   0.0000   0.0000   0.0000   0.0000

          k = 0.0000 0.1250 0.2500 (   438 PWs)   bands (ev):

     6.3281  10.6056  10.9181  12.5833  12.7653  13.6706  13.9537  14.2422
    14.3119  15.0262  15.4728  19.0545  23.4575  25.7302

     occupation numbers 
     1.0000   1.0000   1.0000   1.0043   1.0002   0.0000   0.0000   0.0000
     0.0000   0.0000   0.0000   0.0000   0.0000   0.0000

          k = 0.0000 0.1250 0.3750 (   440 PWs)   bands (ev):

     7.6613  10.2589  11.5468  12.5969  12.6314  13.2830  13.8084  13.8339
    14.1392  15.1205  15.2788  16.8738  25.2805  27.9374

     occupation numbers 
     1.0000   1.0000   1.0000   1.0061   1.0134  -0.0001   0.0000   0.0000
     0.0000   0.0000   0.0000   0.0000   0.0000   0.0000

          k = 0.0000 0.1250-0.5000 (   448 PWs)   bands (ev):

     9.1377   9.1527  12.2100  12.2245  12.8156  12.8245  13.6539  13.6575
    14.6438  14.6461  15.7104  15.7137  27.2919  27.2939

     occupation numbers 
     1.0000   1.0000   1.0000   1.0000   0.8549   0.8154   0.0000   0.0000
     0.0000   0.0000   0.0000   0.0000   0.0000   0.0000

          k = 0.0000 0.2500 0.2500 (   441 PWs)   bands (ev):

     7.1315  10.7106  11.2160  12.2565  12.5635  13.2043  13.9312  14.2244
    14.5249  14.9358  15.6928  19.0526  21.7055  26.9763

     occupation numbers 
     1.0000   1.0000   1.0000   1.0000   1.0024  -0.0019   0.0000   0.0000
     0.0000   0.0000   0.0000   0.0000   0.0000   0.0000

          k = 0.0000 0.2500 0.3750 (   445 PWs)   bands (ev):

     8.2781  10.3143  11.7635  12.1141  12.4380  12.5910  13.9853  14.3866
    14.7750  15.1414  15.5981  17.1826  22.6207  26.4958

     occupation numbers 
     1.0000   1.0000   1.0000   1.0000   1.0000   1.0052   0.0000   0.0000
     0.0000   0.0000   0.0000   0.0000   0.0000   0.0000

          k = 0.0000 0.2500-0.5000 (   446 PWs)   bands (ev):

     9.4473   9.4525  12.2163  12.2200  12.2219  12.2339  14.2145  14.2179
    15.2595  15.2596  15.7095  15.7105  24.3515  24.3515

     occupation numbers 
     1.0000   1.0000   1.0000   1.0000   1.0000   1.0000   0.0000   0.0000
     0.0000   0.0000   0.0000   0.0000   0.0000   0.0000

          k = 0.0000 0.3750 0.3750 (   442 PWs)   bands (ev):

     9.0013  10.0161  11.8243  12.0645  12.4206  12.6825  14.3035  14.6631
    15.0464  15.3232  15.7975  16.6600  21.5299  24.0306

     occupation numbers 
     1.0000   1.0000   1.0000   1.0000   1.0000   1.0297   0.0000   0.0000
     0.0000   0.0000   0.0000   0.0000   0.0000   0.0000

          k = 0.0000 0.3750-0.5000 (   436 PWs)   bands (ev):

     9.5669   9.5857  11.7998  11.8008  12.9031  12.9105  14.5960  14.6007
    15.4771  15.4803  15.6895  15.6896  22.2651  22.2675

     occupation numbers 
     1.0000   1.0000   1.0000   1.0000   0.3585   0.3152   0.0000   0.0000
     0.0000   0.0000   0.0000   0.0000   0.0000   0.0000

          k = 0.0000-0.5000-0.5000 (   428 PWs)   bands (ev):

     9.5686   9.5906  11.6530  11.6530  13.5599  13.5599  14.7248  14.7293
    15.1013  15.1100  15.8416  15.8416  21.5052  21.5089

     occupation numbers 
     1.0000   1.0000   1.0000   1.0000   0.0000   0.0000   0.0000   0.0000
     0.0000   0.0000   0.0000   0.0000   0.0000   0.0000

          k = 0.1250 0.1250 0.1250 (   446 PWs)   bands (ev):

     5.7431  10.6108  10.6108  12.6646  12.6646  13.5454  14.0267  14.7516
    14.7516  15.2613  15.2613  22.0972  22.0972  23.0238

     occupation numbers 
     1.0000   1.0000   1.0000   1.0239   1.0239   0.0000   0.0000   0.0000
     0.0000   0.0000   0.0000   0.0000   0.0000   0.0000

          k = 0.1250 0.1250 0.2500 (   438 PWs)   bands (ev):

     6.6117  10.7655  10.9767  12.4710  12.5291  13.2861  14.0019  14.4353
    14.6065  14.9716  15.3358  19.4804  23.5299  24.0231

     occupation numbers 
     1.0000   1.0000   1.0000   1.0001   1.0008  -0.0001   0.0000   0.0000
     0.0000   0.0000   0.0000   0.0000   0.0000   0.0000

          k = 0.1250 0.1250 0.3750 (   443 PWs)   bands (ev):

     7.9034  10.4123  11.4942  12.3342  12.4632  12.8766  14.0425  14.0545
    14.5100  15.1425  15.2494  17.2096  25.3236  25.6765

     occupation numbers 
     1.0000   1.0000   1.0000   1.0000   1.0001   0.5209   0.0000   0.0000
     0.0000   0.0000   0.0000   0.0000   0.0000   0.0000

          k = 0.1250 0.1250-0.5000 (   448 PWs)   bands (ev):

     9.3211   9.3288  11.9989  12.0048  12.6480  12.6482  13.8429  13.8436
    14.8910  14.8932  15.8371  15.8401  27.2343  27.2390

     occupation numbers 
     1.0000   1.0000   1.0000   1.0000   1.0183   1.0184   0.0000   0.0000
     0.0000   0.0000   0.0000   0.0000   0.0000   0.0000

          k = 0.1250 0.2500 0.2500 (   435 PWs)   bands (ev):

     7.4076  10.9103  11.2545  12.1731  12.3170  12.6078  14.4123  14.5726
    14.6137  14.9101  15.3801  19.6516  21.7725  24.7585

     occupation numbers 
     1.0000   1.0000   1.0000   1.0000   1.0000   1.0080   0.0000   0.0000
     0.0000   0.0000   0.0000   0.0000   0.0000   0.0000

          k = 0.1250 0.2500 0.3750 (   441 PWs)   bands (ev):

     8.5343  10.5243  11.6498  11.9966  12.2099  12.3388  14.2393  14.4600
    15.0268  15.2848  15.3227  17.7491  22.7311  26.1751

     occupation numbers 
     1.0000   1.0000   1.0000   1.0000   1.0000   1.0000   0.0000   0.0000
     0.0000   0.0000   0.0000   0.0000   0.0000   0.0000

          k = 0.1250 0.2500-0.5000 (   440 PWs)   bands (ev):

     9.6670   9.6766  11.8713  11.8751  12.2601  12.2716  14.2991  14.3029
    15.1567  15.1595  16.1998  16.2014  24.4760  24.4766

     occupation numbers 
     1.0000   1.0000   1.0000   1.0000   1.0000   1.0000   0.0000   0.0000
     0.0000   0.0000   0.0000   0.0000   0.0000   0.0000

          k = 0.1250 0.3750 0.3750 (   445 PWs)   bands (ev):

     9.2622  10.2319  11.7513  11.9026  12.2690  12.3455  14.4533  14.7092
    15.0506  15.3865  15.8300  17.5178  21.5426  24.1446

     occupation numbers 
     1.0000   1.0000   1.0000   1.0000   1.0000   1.0000   0.0000   0.0000
     0.0000   0.0000   0.0000   0.0000   0.0000   0.0000

          k = 0.1250 0.3750-0.5000 (   440 PWs)   bands (ev):

     9.8026   9.8238  11.7094  11.7118  12.5899  12.5973  14.6552  14.6603
    15.1929  15.1984  16.5376  16.5379  22.3233  22.3254

     occupation numbers 
     1.0000   1.0000   1.0000   1.0000   1.0051   1.0062   0.0000   0.0000
     0.0000   0.0000   0.0000   0.0000   0.0000   0.0000

          k = 0.1250-0.5000-0.5000 (   444 PWs)   bands (ev):

     9.8013   9.8250  11.5906  11.5906  13.0377  13.0377  14.7779  14.7830
    15.1080  15.1167  16.6427  16.6427  21.5084  21.5121

     occupation numbers 
     1.0000   1.0000   1.0000   1.0000  -0.0347  -0.0347   0.0000   0.0000
     0.0000   0.0000   0.0000   0.0000   0.0000   0.0000

          k = 0.2500 0.2500 0.2500 (   443 PWs)   bands (ev):

     8.1719  11.3481  11.3481  11.8439  11.9701  11.9701  14.8254  14.8254
    14.8806  14.8806  15.2518  21.0116  21.0116  22.9939

     occupation numbers 
     1.0000   1.0000   1.0000   1.0000   1.0000   1.0000   0.0000   0.0000
     0.0000   0.0000   0.0000   0.0000   0.0000   0.0000

          k = 0.2500 0.2500 0.3750 (   445 PWs)   bands (ev):

     9.2077  10.9319  11.4557  11.7483  11.8664  11.9671  14.5956  14.6905
    15.0453  15.0748  16.0100  18.7534  22.7178  23.7174

     occupation numbers 
     1.0000   1.0000   1.0000   1.0000   1.0000   1.0000   0.0000   0.0000
     0.0000   0.0000   0.0000   0.0000   0.0000   0.0000

          k = 0.2500 0.2500-0.5000 (   442 PWs)   bands (ev):

    10.1591  10.1803  11.5714  11.5825  12.0044  12.0233  14.5684  14.5740
    15.1158  15.1209  17.0540  17.0544  24.6523  24.6532

     occupation numbers 
     1.0000   1.0000   1.0000   1.0000   1.0000   1.0000   0.0000   0.0000
     0.0000   0.0000   0.0000   0.0000   0.0000   0.0000

          k = 0.2500 0.3750 0.3750 (   438 PWs)   bands (ev):

     9.9599  10.7513  11.5847  11.6020  11.7817  11.9222  14.7541  14.8644
    15.0551  15.0894  16.8367  19.0369  21.5624  24.3677

     occupation numbers 
     1.0000   1.0000   1.0000   1.0000   1.0000   1.0000   0.0000   0.0000
     0.0000   0.0000   0.0000   0.0000   0.0000   0.0000

          k = 0.2500 0.3750-0.5000 (   442 PWs)   bands (ev):

    10.4066  10.4343  11.5169  11.5249  12.0172  12.0294  14.8292  14.8357
    15.1142  15.1215  17.8506  17.8510  22.5798  22.5815

     occupation numbers 
     1.0000   1.0000   1.0000   1.0000   1.0000   1.0000   0.0000   0.0000
     0.0000   0.0000   0.0000   0.0000   0.0000   0.0000

          k = 0.2500-0.5000-0.5000 (   436 PWs)   bands (ev):

    10.4052  10.4330  11.4524  11.4524  12.2673  12.2673  14.9167  14.9233
    15.1245  15.1331  18.2475  18.2475  21.5796  21.5833

     occupation numbers 
     1.0000   1.0000   1.0000   1.0000   1.0000   1.0000   0.0000   0.0000
     0.0000   0.0000   0.0000   0.0000   0.0000   0.0000

          k = 0.3750 0.3750 0.3750 (   450 PWs)   bands (ev):

    10.7651  11.0450  11.4374  11.4374  11.5941  11.5941  15.0075  15.0075
    15.0447  15.0447  17.9390  20.8693  20.8693  22.9870

     occupation numbers 
     1.0000   1.0000   1.0000   1.0000   1.0000   1.0000   0.0000   0.0000
     0.0000   0.0000   0.0000   0.0000   0.0000   0.0000

          k = 0.3750 0.3750-0.5000 (   452 PWs)   bands (ev):

    10.9824  11.0142  11.4096  11.4362  11.6170  11.6458  15.0144  15.0222
    15.1131  15.1211  19.2329  19.2340  22.9456  22.9507

     occupation numbers 
     1.0000   1.0000   1.0000   1.0000   1.0000   1.0000   0.0000   0.0000
     0.0000   0.0000   0.0000   0.0000   0.0000   0.0000

          k = 0.3750-0.5000-0.5000 (   440 PWs)   bands (ev):

    11.0822  11.1143  11.3504  11.3504  11.7027  11.7027  15.0740  15.0820
    15.1414  15.1500  20.1851  20.1851  21.8928  21.8975

     occupation numbers 
     1.0000   1.0000   1.0000   1.0000   1.0000   1.0000   0.0000   0.0000
     0.0000   0.0000   0.0000   0.0000   0.0000   0.0000

          k =-0.5000-0.5000-0.5000 (   432 PWs)   bands (ev):

    11.3896  11.3896  11.3896  11.4235  11.4235  11.4235  15.1483  15.1483
    15.1569  15.1569  22.3466  22.3466  22.3466  22.3550

     occupation numbers 
     1.0000   1.0000   1.0000   1.0000   1.0000   1.0000   0.0000   0.0000
     0.0000   0.0000   0.0000   0.0000   0.0000   0.0000

     the Fermi energy is    12.8800 ev

!    total energy              =    -111.63138832 Ry
     Harris-Foulkes estimate   =    -111.63138832 Ry
     estimated scf accuracy    <          3.8E-10 Ry

     The total energy is the sum of the following terms:

     one-electron contribution =      13.80387702 Ry
     hartree contribution      =      13.43624170 Ry
     xc contribution           =     -52.89869261 Ry
     ewald contribution        =     -85.94499659 Ry
     Hubbard energy            =      -0.02773514 Ry
     smearing contrib. (-TS)   =      -0.00008271 Ry

     total magnetization       =     4.82 Bohr mag/cell
     absolute magnetization    =     5.14 Bohr mag/cell

     convergence has been achieved in   9 iterations

     Writing output data file fe.save
 
     init_run     :      0.62s CPU      0.62s WALL (       1 calls)
     electrons    :      6.80s CPU      6.99s WALL (       1 calls)

     Called by init_run:
     wfcinit      :      0.03s CPU      0.02s WALL (       1 calls)
     potinit      :      0.18s CPU      0.18s WALL (       1 calls)

     Called by electrons:
     c_bands      :      4.94s CPU      5.08s WALL (       9 calls)
     sum_band     :      1.22s CPU      1.26s WALL (       9 calls)
     v_of_rho     :      0.27s CPU      0.26s WALL (      10 calls)
     v_h          :      0.01s CPU      0.01s WALL (      10 calls)
     v_xc         :      0.26s CPU      0.26s WALL (      10 calls)
     newd         :      0.40s CPU      0.40s WALL (      10 calls)
     mix_rho      :      0.02s CPU      0.02s WALL (       9 calls)

     Called by c_bands:
     init_us_2    :      0.13s CPU      0.13s WALL (    1330 calls)
     cegterg      :      4.46s CPU      4.56s WALL (     630 calls)

     Called by sum_band:
     sum_band:bec :      0.04s CPU      0.02s WALL (     630 calls)
     addusdens    :      0.49s CPU      0.50s WALL (       9 calls)

     Called by *egterg:
     h_psi        :      2.52s CPU      2.61s WALL (    2143 calls)
     s_psi        :      0.18s CPU      0.16s WALL (    2213 calls)
     g_psi        :      0.03s CPU      0.05s WALL (    1513 calls)
     cdiaghg      :      1.14s CPU      1.21s WALL (    2073 calls)
     cegterg:over :      0.20s CPU      0.20s WALL (    1513 calls)
     cegterg:upda :      0.12s CPU      0.11s WALL (    1513 calls)
     cegterg:last :      0.06s CPU      0.07s WALL (     682 calls)

     Called by h_psi:
     h_psi:vloc   :      2.00s CPU      2.08s WALL (    2143 calls)
     h_psi:vnl    :      0.34s CPU      0.35s WALL (    2143 calls)
     add_vuspsi   :      0.12s CPU      0.16s WALL (    2143 calls)
     vhpsi        :      0.18s CPU      0.17s WALL (    2143 calls)

     General routines
     calbec       :      0.40s CPU      0.36s WALL (    5616 calls)
     fft          :      0.16s CPU      0.15s WALL (     298 calls)
     ffts         :      0.00s CPU      0.00s WALL (      38 calls)
     fftw         :      1.85s CPU      1.97s WALL (   53850 calls)
     interpolate  :      0.02s CPU      0.02s WALL (      38 calls)
     davcio       :      0.00s CPU      0.00s WALL (     210 calls)
 
     Parallel routines
     fft_scatter  :      0.96s CPU      0.92s WALL (   54186 calls)
     Hubbard U routines
     new_ns       :      0.05s CPU      0.05s WALL (       9 calls)
     vhpsi        :      0.18s CPU      0.17s WALL (    2143 calls)
 
     PWSCF        :     7.69s CPU         7.90s WALL

 
   This run was terminated on:  17:32:56  30Jun2014            

=------------------------------------------------------------------------------=
   JOB DONE.
=------------------------------------------------------------------------------=
