
     Program PWSCF v.5.1 starts on 30Jun2014 at 17:33: 4 

     This program is part of the open-source Quantum ESPRESSO suite
     for quantum simulation of materials; please cite
         "P. Giannozzi et al., J. Phys.:Condens. Matter 21 395502 (2009);
          URL http://www.quantum-espresso.org", 
     in publications or presentations arising from this work. More details at
     http://www.quantum-espresso.org/quote

     Parallel version (MPI), running on     4 processors
     R & G space division:  proc/nbgrp/npool/nimage =       4
     Waiting for input...
     Reading input from standard input

     Current dimensions of program PWSCF are:
     Max number of different atomic species (ntypx) = 10
     Max number of k-points (npk) =  40000
     Max angular momentum in pseudopotentials (lmaxx) =  3
               file Fe.pbe-nd-rrkjus.UPF: wavefunction(s)  4S renormalized
               file Fe.pbe-nd-rrkjus.UPF: wavefunction(s)  4S renormalized

     Subspace diagonalization in iterative solution of the eigenvalue problem:
     a serial algorithm will be used

 
     Parallelization info
     --------------------
     sticks:   dense  smooth     PW     G-vecs:    dense   smooth      PW
     Min         211      71     24                 4581      891     184
     Max         212      72     25                 4582      900     187
     Sum         845     285     97                18325     3575     739
 
     Generating pointlists ...
     new r_m :   0.3572 (alat units)  1.9362 (a.u.) for type    1
     new r_m :   0.3572 (alat units)  1.9362 (a.u.) for type    2


     bravais-lattice index     =            1
     lattice parameter (alat)  =       5.4200  a.u.
     unit-cell volume          =     159.2201 (a.u.)^3
     number of atoms/cell      =            2
     number of atomic types    =            2
     number of electrons       =        16.00
     number of Kohn-Sham states=           14
     kinetic-energy cutoff     =      30.0000  Ry
     charge density cutoff     =     360.0000  Ry
     convergence threshold     =      1.0E-09
     mixing beta               =       0.7000
     number of iterations used =            8  plain     mixing
     Exchange-correlation      =  SLA  PW   PBE  PBE ( 1  4  3  4 0)

     celldm(1)=   5.420000  celldm(2)=   0.000000  celldm(3)=   0.000000
     celldm(4)=   0.000000  celldm(5)=   0.000000  celldm(6)=   0.000000

     crystal axes: (cart. coord. in units of alat)
               a(1) = (   1.000000   0.000000   0.000000 )  
               a(2) = (   0.000000   1.000000   0.000000 )  
               a(3) = (   0.000000   0.000000   1.000000 )  

     reciprocal axes: (cart. coord. in units 2 pi/alat)
               b(1) = (  1.000000  0.000000  0.000000 )  
               b(2) = (  0.000000  1.000000  0.000000 )  
               b(3) = (  0.000000  0.000000  1.000000 )  


     PseudoPot. # 1 for Fe read from file:
     ../pseudo/Fe.pbe-nd-rrkjus.UPF
     MD5 check sum: 23c640529ef232ac9996b4ec1b0ce2fd
     Pseudo is Ultrasoft + core correction, Zval =  8.0
     Generated by new atomic code, or converted to UPF format
     Using radial grid of  957 points,  6 beta functions with: 
                l(1) =   0
                l(2) =   0
                l(3) =   1
                l(4) =   1
                l(5) =   2
                l(6) =   2
     Q(r) pseudized with 0 coefficients 


     PseudoPot. # 2 for Fe read from file:
     ../pseudo/Fe.pbe-nd-rrkjus.UPF
     MD5 check sum: 23c640529ef232ac9996b4ec1b0ce2fd
     Pseudo is Ultrasoft + core correction, Zval =  8.0
     Generated by new atomic code, or converted to UPF format
     Using radial grid of  957 points,  6 beta functions with: 
                l(1) =   0
                l(2) =   0
                l(3) =   1
                l(4) =   1
                l(5) =   2
                l(6) =   2
     Q(r) pseudized with 0 coefficients 


     atomic species   valence    mass     pseudopotential
        Fe1            8.00     1.00000     Fe( 1.00)
        Fe             8.00     1.00000     Fe( 1.00)

     Starting magnetic structure 
     atomic species   magnetization
        Fe1          0.600
        Fe           0.600


     Simplified LDA+U calculation (l_max = 2) with parameters (eV):
     atomic species    L          U    alpha       J0     beta
        Fe1            2     0.0000  -0.1000   0.0000   0.0000
        Fe             2     0.0000   0.0000   0.0000   0.0000



     48 Sym. Ops., with inversion, found


                                    s                        frac. trans.

      isym =  1     identity                                     

 cryst.   s( 1) = (     1          0          0      )
                  (     0          1          0      )
                  (     0          0          1      )

 cart.    s( 1) = (  1.0000000  0.0000000  0.0000000 )
                  (  0.0000000  1.0000000  0.0000000 )
                  (  0.0000000  0.0000000  1.0000000 )


      isym =  2     180 deg rotation - cart. axis [0,0,1]        

 cryst.   s( 2) = (    -1          0          0      )
                  (     0         -1          0      )
                  (     0          0          1      )

 cart.    s( 2) = ( -1.0000000  0.0000000  0.0000000 )
                  (  0.0000000 -1.0000000  0.0000000 )
                  (  0.0000000  0.0000000  1.0000000 )


      isym =  3     180 deg rotation - cart. axis [0,1,0]        

 cryst.   s( 3) = (    -1          0          0      )
                  (     0          1          0      )
                  (     0          0         -1      )

 cart.    s( 3) = ( -1.0000000  0.0000000  0.0000000 )
                  (  0.0000000  1.0000000  0.0000000 )
                  (  0.0000000  0.0000000 -1.0000000 )


      isym =  4     180 deg rotation - cart. axis [1,0,0]        

 cryst.   s( 4) = (     1          0          0      )
                  (     0         -1          0      )
                  (     0          0         -1      )

 cart.    s( 4) = (  1.0000000  0.0000000  0.0000000 )
                  (  0.0000000 -1.0000000  0.0000000 )
                  (  0.0000000  0.0000000 -1.0000000 )


      isym =  5     180 deg rotation - cart. axis [1,1,0]        

 cryst.   s( 5) = (     0          1          0      )
                  (     1          0          0      )
                  (     0          0         -1      )

 cart.    s( 5) = (  0.0000000  1.0000000  0.0000000 )
                  (  1.0000000  0.0000000  0.0000000 )
                  (  0.0000000  0.0000000 -1.0000000 )


      isym =  6     180 deg rotation - cart. axis [1,-1,0]       

 cryst.   s( 6) = (     0         -1          0      )
                  (    -1          0          0      )
                  (     0          0         -1      )

 cart.    s( 6) = (  0.0000000 -1.0000000  0.0000000 )
                  ( -1.0000000  0.0000000  0.0000000 )
                  (  0.0000000  0.0000000 -1.0000000 )


      isym =  7      90 deg rotation - cart. axis [0,0,-1]       

 cryst.   s( 7) = (     0         -1          0      )
                  (     1          0          0      )
                  (     0          0          1      )

 cart.    s( 7) = (  0.0000000  1.0000000  0.0000000 )
                  ( -1.0000000  0.0000000  0.0000000 )
                  (  0.0000000  0.0000000  1.0000000 )


      isym =  8      90 deg rotation - cart. axis [0,0,1]        

 cryst.   s( 8) = (     0          1          0      )
                  (    -1          0          0      )
                  (     0          0          1      )

 cart.    s( 8) = (  0.0000000 -1.0000000  0.0000000 )
                  (  1.0000000  0.0000000  0.0000000 )
                  (  0.0000000  0.0000000  1.0000000 )


      isym =  9     180 deg rotation - cart. axis [1,0,1]        

 cryst.   s( 9) = (     0          0          1      )
                  (     0         -1          0      )
                  (     1          0          0      )

 cart.    s( 9) = (  0.0000000  0.0000000  1.0000000 )
                  (  0.0000000 -1.0000000  0.0000000 )
                  (  1.0000000  0.0000000  0.0000000 )


      isym = 10     180 deg rotation - cart. axis [-1,0,1]       

 cryst.   s(10) = (     0          0         -1      )
                  (     0         -1          0      )
                  (    -1          0          0      )

 cart.    s(10) = (  0.0000000  0.0000000 -1.0000000 )
                  (  0.0000000 -1.0000000  0.0000000 )
                  ( -1.0000000  0.0000000  0.0000000 )


      isym = 11      90 deg rotation - cart. axis [0,1,0]        

 cryst.   s(11) = (     0          0         -1      )
                  (     0          1          0      )
                  (     1          0          0      )

 cart.    s(11) = (  0.0000000  0.0000000  1.0000000 )
                  (  0.0000000  1.0000000  0.0000000 )
                  ( -1.0000000  0.0000000  0.0000000 )


      isym = 12      90 deg rotation - cart. axis [0,-1,0]       

 cryst.   s(12) = (     0          0          1      )
                  (     0          1          0      )
                  (    -1          0          0      )

 cart.    s(12) = (  0.0000000  0.0000000 -1.0000000 )
                  (  0.0000000  1.0000000  0.0000000 )
                  (  1.0000000  0.0000000  0.0000000 )


      isym = 13     180 deg rotation - cart. axis [0,1,1]        

 cryst.   s(13) = (    -1          0          0      )
                  (     0          0          1      )
                  (     0          1          0      )

 cart.    s(13) = ( -1.0000000  0.0000000  0.0000000 )
                  (  0.0000000  0.0000000  1.0000000 )
                  (  0.0000000  1.0000000  0.0000000 )


      isym = 14     180 deg rotation - cart. axis [0,1,-1]       

 cryst.   s(14) = (    -1          0          0      )
                  (     0          0         -1      )
                  (     0         -1          0      )

 cart.    s(14) = ( -1.0000000  0.0000000  0.0000000 )
                  (  0.0000000  0.0000000 -1.0000000 )
                  (  0.0000000 -1.0000000  0.0000000 )


      isym = 15      90 deg rotation - cart. axis [-1,0,0]       

 cryst.   s(15) = (     1          0          0      )
                  (     0          0         -1      )
                  (     0          1          0      )

 cart.    s(15) = (  1.0000000  0.0000000  0.0000000 )
                  (  0.0000000  0.0000000  1.0000000 )
                  (  0.0000000 -1.0000000  0.0000000 )


      isym = 16      90 deg rotation - cart. axis [1,0,0]        

 cryst.   s(16) = (     1          0          0      )
                  (     0          0          1      )
                  (     0         -1          0      )

 cart.    s(16) = (  1.0000000  0.0000000  0.0000000 )
                  (  0.0000000  0.0000000 -1.0000000 )
                  (  0.0000000  1.0000000  0.0000000 )


      isym = 17     120 deg rotation - cart. axis [-1,-1,-1]     

 cryst.   s(17) = (     0          0          1      )
                  (     1          0          0      )
                  (     0          1          0      )

 cart.    s(17) = (  0.0000000  1.0000000  0.0000000 )
                  (  0.0000000  0.0000000  1.0000000 )
                  (  1.0000000  0.0000000  0.0000000 )


      isym = 18     120 deg rotation - cart. axis [-1,1,1]       

 cryst.   s(18) = (     0          0         -1      )
                  (    -1          0          0      )
                  (     0          1          0      )

 cart.    s(18) = (  0.0000000 -1.0000000  0.0000000 )
                  (  0.0000000  0.0000000  1.0000000 )
                  ( -1.0000000  0.0000000  0.0000000 )


      isym = 19     120 deg rotation - cart. axis [1,1,-1]       

 cryst.   s(19) = (     0          0         -1      )
                  (     1          0          0      )
                  (     0         -1          0      )

 cart.    s(19) = (  0.0000000  1.0000000  0.0000000 )
                  (  0.0000000  0.0000000 -1.0000000 )
                  ( -1.0000000  0.0000000  0.0000000 )


      isym = 20     120 deg rotation - cart. axis [1,-1,1]       

 cryst.   s(20) = (     0          0          1      )
                  (    -1          0          0      )
                  (     0         -1          0      )

 cart.    s(20) = (  0.0000000 -1.0000000  0.0000000 )
                  (  0.0000000  0.0000000 -1.0000000 )
                  (  1.0000000  0.0000000  0.0000000 )


      isym = 21     120 deg rotation - cart. axis [1,1,1]        

 cryst.   s(21) = (     0          1          0      )
                  (     0          0          1      )
                  (     1          0          0      )

 cart.    s(21) = (  0.0000000  0.0000000  1.0000000 )
                  (  1.0000000  0.0000000  0.0000000 )
                  (  0.0000000  1.0000000  0.0000000 )


      isym = 22     120 deg rotation - cart. axis [-1,1,-1]      

 cryst.   s(22) = (     0         -1          0      )
                  (     0          0         -1      )
                  (     1          0          0      )

 cart.    s(22) = (  0.0000000  0.0000000  1.0000000 )
                  ( -1.0000000  0.0000000  0.0000000 )
                  (  0.0000000 -1.0000000  0.0000000 )


      isym = 23     120 deg rotation - cart. axis [1,-1,-1]      

 cryst.   s(23) = (     0         -1          0      )
                  (     0          0          1      )
                  (    -1          0          0      )

 cart.    s(23) = (  0.0000000  0.0000000 -1.0000000 )
                  ( -1.0000000  0.0000000  0.0000000 )
                  (  0.0000000  1.0000000  0.0000000 )


      isym = 24     120 deg rotation - cart. axis [-1,-1,1]      

 cryst.   s(24) = (     0          1          0      )
                  (     0          0         -1      )
                  (    -1          0          0      )

 cart.    s(24) = (  0.0000000  0.0000000 -1.0000000 )
                  (  1.0000000  0.0000000  0.0000000 )
                  (  0.0000000 -1.0000000  0.0000000 )


      isym = 25     inversion                                    

 cryst.   s(25) = (    -1          0          0      )
                  (     0         -1          0      )
                  (     0          0         -1      )

 cart.    s(25) = ( -1.0000000  0.0000000  0.0000000 )
                  (  0.0000000 -1.0000000  0.0000000 )
                  (  0.0000000  0.0000000 -1.0000000 )


      isym = 26     inv. 180 deg rotation - cart. axis [0,0,1]   

 cryst.   s(26) = (     1          0          0      )
                  (     0          1          0      )
                  (     0          0         -1      )

 cart.    s(26) = (  1.0000000  0.0000000  0.0000000 )
                  (  0.0000000  1.0000000  0.0000000 )
                  (  0.0000000  0.0000000 -1.0000000 )


      isym = 27     inv. 180 deg rotation - cart. axis [0,1,0]   

 cryst.   s(27) = (     1          0          0      )
                  (     0         -1          0      )
                  (     0          0          1      )

 cart.    s(27) = (  1.0000000  0.0000000  0.0000000 )
                  (  0.0000000 -1.0000000  0.0000000 )
                  (  0.0000000  0.0000000  1.0000000 )


      isym = 28     inv. 180 deg rotation - cart. axis [1,0,0]   

 cryst.   s(28) = (    -1          0          0      )
                  (     0          1          0      )
                  (     0          0          1      )

 cart.    s(28) = ( -1.0000000  0.0000000  0.0000000 )
                  (  0.0000000  1.0000000  0.0000000 )
                  (  0.0000000  0.0000000  1.0000000 )


      isym = 29     inv. 180 deg rotation - cart. axis [1,1,0]   

 cryst.   s(29) = (     0         -1          0      )
                  (    -1          0          0      )
                  (     0          0          1      )

 cart.    s(29) = (  0.0000000 -1.0000000  0.0000000 )
                  ( -1.0000000  0.0000000  0.0000000 )
                  (  0.0000000  0.0000000  1.0000000 )


      isym = 30     inv. 180 deg rotation - cart. axis [1,-1,0]  

 cryst.   s(30) = (     0          1          0      )
                  (     1          0          0      )
                  (     0          0          1      )

 cart.    s(30) = (  0.0000000  1.0000000  0.0000000 )
                  (  1.0000000  0.0000000  0.0000000 )
                  (  0.0000000  0.0000000  1.0000000 )


      isym = 31     inv.  90 deg rotation - cart. axis [0,0,-1]  

 cryst.   s(31) = (     0          1          0      )
                  (    -1          0          0      )
                  (     0          0         -1      )

 cart.    s(31) = (  0.0000000 -1.0000000  0.0000000 )
                  (  1.0000000  0.0000000  0.0000000 )
                  (  0.0000000  0.0000000 -1.0000000 )


      isym = 32     inv.  90 deg rotation - cart. axis [0,0,1]   

 cryst.   s(32) = (     0         -1          0      )
                  (     1          0          0      )
                  (     0          0         -1      )

 cart.    s(32) = (  0.0000000  1.0000000  0.0000000 )
                  ( -1.0000000  0.0000000  0.0000000 )
                  (  0.0000000  0.0000000 -1.0000000 )


      isym = 33     inv. 180 deg rotation - cart. axis [1,0,1]   

 cryst.   s(33) = (     0          0         -1      )
                  (     0          1          0      )
                  (    -1          0          0      )

 cart.    s(33) = (  0.0000000  0.0000000 -1.0000000 )
                  (  0.0000000  1.0000000  0.0000000 )
                  ( -1.0000000  0.0000000  0.0000000 )


      isym = 34     inv. 180 deg rotation - cart. axis [-1,0,1]  

 cryst.   s(34) = (     0          0          1      )
                  (     0          1          0      )
                  (     1          0          0      )

 cart.    s(34) = (  0.0000000  0.0000000  1.0000000 )
                  (  0.0000000  1.0000000  0.0000000 )
                  (  1.0000000  0.0000000  0.0000000 )


      isym = 35     inv.  90 deg rotation - cart. axis [0,1,0]   

 cryst.   s(35) = (     0          0          1      )
                  (     0         -1          0      )
                  (    -1          0          0      )

 cart.    s(35) = (  0.0000000  0.0000000 -1.0000000 )
                  (  0.0000000 -1.0000000  0.0000000 )
                  (  1.0000000  0.0000000  0.0000000 )


      isym = 36     inv.  90 deg rotation - cart. axis [0,-1,0]  

 cryst.   s(36) = (     0          0         -1      )
                  (     0         -1          0      )
                  (     1          0          0      )

 cart.    s(36) = (  0.0000000  0.0000000  1.0000000 )
                  (  0.0000000 -1.0000000  0.0000000 )
                  ( -1.0000000  0.0000000  0.0000000 )


      isym = 37     inv. 180 deg rotation - cart. axis [0,1,1]   

 cryst.   s(37) = (     1          0          0      )
                  (     0          0         -1      )
                  (     0         -1          0      )

 cart.    s(37) = (  1.0000000  0.0000000  0.0000000 )
                  (  0.0000000  0.0000000 -1.0000000 )
                  (  0.0000000 -1.0000000  0.0000000 )


      isym = 38     inv. 180 deg rotation - cart. axis [0,1,-1]  

 cryst.   s(38) = (     1          0          0      )
                  (     0          0          1      )
                  (     0          1          0      )

 cart.    s(38) = (  1.0000000  0.0000000  0.0000000 )
                  (  0.0000000  0.0000000  1.0000000 )
                  (  0.0000000  1.0000000  0.0000000 )


      isym = 39     inv.  90 deg rotation - cart. axis [-1,0,0]  

 cryst.   s(39) = (    -1          0          0      )
                  (     0          0          1      )
                  (     0         -1          0      )

 cart.    s(39) = ( -1.0000000  0.0000000  0.0000000 )
                  (  0.0000000  0.0000000 -1.0000000 )
                  (  0.0000000  1.0000000  0.0000000 )


      isym = 40     inv.  90 deg rotation - cart. axis [1,0,0]   

 cryst.   s(40) = (    -1          0          0      )
                  (     0          0         -1      )
                  (     0          1          0      )

 cart.    s(40) = ( -1.0000000  0.0000000  0.0000000 )
                  (  0.0000000  0.0000000  1.0000000 )
                  (  0.0000000 -1.0000000  0.0000000 )


      isym = 41     inv. 120 deg rotation - cart. axis [-1,-1,-1]

 cryst.   s(41) = (     0          0         -1      )
                  (    -1          0          0      )
                  (     0         -1          0      )

 cart.    s(41) = (  0.0000000 -1.0000000  0.0000000 )
                  (  0.0000000  0.0000000 -1.0000000 )
                  ( -1.0000000  0.0000000  0.0000000 )


      isym = 42     inv. 120 deg rotation - cart. axis [-1,1,1]  

 cryst.   s(42) = (     0          0          1      )
                  (     1          0          0      )
                  (     0         -1          0      )

 cart.    s(42) = (  0.0000000  1.0000000  0.0000000 )
                  (  0.0000000  0.0000000 -1.0000000 )
                  (  1.0000000  0.0000000  0.0000000 )


      isym = 43     inv. 120 deg rotation - cart. axis [1,1,-1]  

 cryst.   s(43) = (     0          0          1      )
                  (    -1          0          0      )
                  (     0          1          0      )

 cart.    s(43) = (  0.0000000 -1.0000000  0.0000000 )
                  (  0.0000000  0.0000000  1.0000000 )
                  (  1.0000000  0.0000000  0.0000000 )


      isym = 44     inv. 120 deg rotation - cart. axis [1,-1,1]  

 cryst.   s(44) = (     0          0         -1      )
                  (     1          0          0      )
                  (     0          1          0      )

 cart.    s(44) = (  0.0000000  1.0000000  0.0000000 )
                  (  0.0000000  0.0000000  1.0000000 )
                  ( -1.0000000  0.0000000  0.0000000 )


      isym = 45     inv. 120 deg rotation - cart. axis [1,1,1]   

 cryst.   s(45) = (     0         -1          0      )
                  (     0          0         -1      )
                  (    -1          0          0      )

 cart.    s(45) = (  0.0000000  0.0000000 -1.0000000 )
                  ( -1.0000000  0.0000000  0.0000000 )
                  (  0.0000000 -1.0000000  0.0000000 )


      isym = 46     inv. 120 deg rotation - cart. axis [-1,1,-1] 

 cryst.   s(46) = (     0          1          0      )
                  (     0          0          1      )
                  (    -1          0          0      )

 cart.    s(46) = (  0.0000000  0.0000000 -1.0000000 )
                  (  1.0000000  0.0000000  0.0000000 )
                  (  0.0000000  1.0000000  0.0000000 )


      isym = 47     inv. 120 deg rotation - cart. axis [1,-1,-1] 

 cryst.   s(47) = (     0          1          0      )
                  (     0          0         -1      )
                  (     1          0          0      )

 cart.    s(47) = (  0.0000000  0.0000000  1.0000000 )
                  (  1.0000000  0.0000000  0.0000000 )
                  (  0.0000000 -1.0000000  0.0000000 )


      isym = 48     inv. 120 deg rotation - cart. axis [-1,-1,1] 

 cryst.   s(48) = (     0         -1          0      )
                  (     0          0          1      )
                  (     1          0          0      )

 cart.    s(48) = (  0.0000000  0.0000000  1.0000000 )
                  ( -1.0000000  0.0000000  0.0000000 )
                  (  0.0000000  1.0000000  0.0000000 )


     point group O_h (m-3m) 
     there are 10 classes
     the character table:

       E     8C3   6C2'  6C4   3C2   i     6S4   8S6   3s_h  6s_d 
A_1g   1.00  1.00  1.00  1.00  1.00  1.00  1.00  1.00  1.00  1.00
A_2g   1.00  1.00 -1.00 -1.00  1.00  1.00 -1.00  1.00  1.00 -1.00
E_g    2.00 -1.00  0.00  0.00  2.00  2.00  0.00 -1.00  2.00  0.00
T_1g   3.00  0.00 -1.00  1.00 -1.00  3.00  1.00  0.00 -1.00 -1.00
T_2g   3.00  0.00  1.00 -1.00 -1.00  3.00 -1.00  0.00 -1.00  1.00
A_1u   1.00  1.00  1.00  1.00  1.00 -1.00 -1.00 -1.00 -1.00 -1.00
A_2u   1.00  1.00 -1.00 -1.00  1.00 -1.00  1.00 -1.00 -1.00  1.00
E_u    2.00 -1.00  0.00  0.00  2.00 -2.00  0.00  1.00 -2.00  0.00
T_1u   3.00  0.00 -1.00  1.00 -1.00 -3.00 -1.00  0.00  1.00  1.00
T_2u   3.00  0.00  1.00 -1.00 -1.00 -3.00  1.00  0.00  1.00 -1.00

     the symmetry operations in each class:
     E        1
     3C2      2    4    3
     6C2'     5    6   14   13   10    9
     6C4      7    8   15   16   12   11
     8C3     17   19   20   18   24   21   22   23
     i       25
     3s_h    26   28   27
     6s_d    29   30   38   37   34   33
     6S4     31   32   39   40   36   35
     8S6     41   43   44   42   48   45   46   47

   Cartesian axes

     site n.     atom                  positions (alat units)
         1           Fe1 tau(   1) = (   0.0000000   0.0000000   0.0000000  )
         2           Fe  tau(   2) = (   0.5000000   0.5000000   0.5000000  )

   Crystallographic axes

     site n.     atom                  positions (cryst. coord.)
         1           Fe1 tau(   1) = (  0.0000000  0.0000000  0.0000000  )
         2           Fe  tau(   2) = (  0.5000000  0.5000000  0.5000000  )

     number of k points=    70  Methfessel-Paxton smearing, width (Ry)=  0.0100
                       cart. coord. in units 2pi/alat
        k(    1) = (   0.0000000   0.0000000   0.0000000), wk =   0.0019531
        k(    2) = (   0.0000000   0.0000000   0.1250000), wk =   0.0117188
        k(    3) = (   0.0000000   0.0000000   0.2500000), wk =   0.0117188
        k(    4) = (   0.0000000   0.0000000   0.3750000), wk =   0.0117188
        k(    5) = (   0.0000000   0.0000000  -0.5000000), wk =   0.0058594
        k(    6) = (   0.0000000   0.1250000   0.1250000), wk =   0.0234375
        k(    7) = (   0.0000000   0.1250000   0.2500000), wk =   0.0468750
        k(    8) = (   0.0000000   0.1250000   0.3750000), wk =   0.0468750
        k(    9) = (   0.0000000   0.1250000  -0.5000000), wk =   0.0234375
        k(   10) = (   0.0000000   0.2500000   0.2500000), wk =   0.0234375
        k(   11) = (   0.0000000   0.2500000   0.3750000), wk =   0.0468750
        k(   12) = (   0.0000000   0.2500000  -0.5000000), wk =   0.0234375
        k(   13) = (   0.0000000   0.3750000   0.3750000), wk =   0.0234375
        k(   14) = (   0.0000000   0.3750000  -0.5000000), wk =   0.0234375
        k(   15) = (   0.0000000  -0.5000000  -0.5000000), wk =   0.0058594
        k(   16) = (   0.1250000   0.1250000   0.1250000), wk =   0.0156250
        k(   17) = (   0.1250000   0.1250000   0.2500000), wk =   0.0468750
        k(   18) = (   0.1250000   0.1250000   0.3750000), wk =   0.0468750
        k(   19) = (   0.1250000   0.1250000  -0.5000000), wk =   0.0234375
        k(   20) = (   0.1250000   0.2500000   0.2500000), wk =   0.0468750
        k(   21) = (   0.1250000   0.2500000   0.3750000), wk =   0.0937500
        k(   22) = (   0.1250000   0.2500000  -0.5000000), wk =   0.0468750
        k(   23) = (   0.1250000   0.3750000   0.3750000), wk =   0.0468750
        k(   24) = (   0.1250000   0.3750000  -0.5000000), wk =   0.0468750
        k(   25) = (   0.1250000  -0.5000000  -0.5000000), wk =   0.0117188
        k(   26) = (   0.2500000   0.2500000   0.2500000), wk =   0.0156250
        k(   27) = (   0.2500000   0.2500000   0.3750000), wk =   0.0468750
        k(   28) = (   0.2500000   0.2500000  -0.5000000), wk =   0.0234375
        k(   29) = (   0.2500000   0.3750000   0.3750000), wk =   0.0468750
        k(   30) = (   0.2500000   0.3750000  -0.5000000), wk =   0.0468750
        k(   31) = (   0.2500000  -0.5000000  -0.5000000), wk =   0.0117188
        k(   32) = (   0.3750000   0.3750000   0.3750000), wk =   0.0156250
        k(   33) = (   0.3750000   0.3750000  -0.5000000), wk =   0.0234375
        k(   34) = (   0.3750000  -0.5000000  -0.5000000), wk =   0.0117188
        k(   35) = (  -0.5000000  -0.5000000  -0.5000000), wk =   0.0019531
        k(   36) = (   0.0000000   0.0000000   0.0000000), wk =   0.0019531
        k(   37) = (   0.0000000   0.0000000   0.1250000), wk =   0.0117188
        k(   38) = (   0.0000000   0.0000000   0.2500000), wk =   0.0117188
        k(   39) = (   0.0000000   0.0000000   0.3750000), wk =   0.0117188
        k(   40) = (   0.0000000   0.0000000  -0.5000000), wk =   0.0058594
        k(   41) = (   0.0000000   0.1250000   0.1250000), wk =   0.0234375
        k(   42) = (   0.0000000   0.1250000   0.2500000), wk =   0.0468750
        k(   43) = (   0.0000000   0.1250000   0.3750000), wk =   0.0468750
        k(   44) = (   0.0000000   0.1250000  -0.5000000), wk =   0.0234375
        k(   45) = (   0.0000000   0.2500000   0.2500000), wk =   0.0234375
        k(   46) = (   0.0000000   0.2500000   0.3750000), wk =   0.0468750
        k(   47) = (   0.0000000   0.2500000  -0.5000000), wk =   0.0234375
        k(   48) = (   0.0000000   0.3750000   0.3750000), wk =   0.0234375
        k(   49) = (   0.0000000   0.3750000  -0.5000000), wk =   0.0234375
        k(   50) = (   0.0000000  -0.5000000  -0.5000000), wk =   0.0058594
        k(   51) = (   0.1250000   0.1250000   0.1250000), wk =   0.0156250
        k(   52) = (   0.1250000   0.1250000   0.2500000), wk =   0.0468750
        k(   53) = (   0.1250000   0.1250000   0.3750000), wk =   0.0468750
        k(   54) = (   0.1250000   0.1250000  -0.5000000), wk =   0.0234375
        k(   55) = (   0.1250000   0.2500000   0.2500000), wk =   0.0468750
        k(   56) = (   0.1250000   0.2500000   0.3750000), wk =   0.0937500
        k(   57) = (   0.1250000   0.2500000  -0.5000000), wk =   0.0468750
        k(   58) = (   0.1250000   0.3750000   0.3750000), wk =   0.0468750
        k(   59) = (   0.1250000   0.3750000  -0.5000000), wk =   0.0468750
        k(   60) = (   0.1250000  -0.5000000  -0.5000000), wk =   0.0117188
        k(   61) = (   0.2500000   0.2500000   0.2500000), wk =   0.0156250
        k(   62) = (   0.2500000   0.2500000   0.3750000), wk =   0.0468750
        k(   63) = (   0.2500000   0.2500000  -0.5000000), wk =   0.0234375
        k(   64) = (   0.2500000   0.3750000   0.3750000), wk =   0.0468750
        k(   65) = (   0.2500000   0.3750000  -0.5000000), wk =   0.0468750
        k(   66) = (   0.2500000  -0.5000000  -0.5000000), wk =   0.0117188
        k(   67) = (   0.3750000   0.3750000   0.3750000), wk =   0.0156250
        k(   68) = (   0.3750000   0.3750000  -0.5000000), wk =   0.0234375
        k(   69) = (   0.3750000  -0.5000000  -0.5000000), wk =   0.0117188
        k(   70) = (  -0.5000000  -0.5000000  -0.5000000), wk =   0.0019531

                       cryst. coord.
        k(    1) = (   0.0000000   0.0000000   0.0000000), wk =   0.0019531
        k(    2) = (   0.0000000   0.0000000   0.1250000), wk =   0.0117188
        k(    3) = (   0.0000000   0.0000000   0.2500000), wk =   0.0117188
        k(    4) = (   0.0000000   0.0000000   0.3750000), wk =   0.0117188
        k(    5) = (   0.0000000   0.0000000  -0.5000000), wk =   0.0058594
        k(    6) = (   0.0000000   0.1250000   0.1250000), wk =   0.0234375
        k(    7) = (   0.0000000   0.1250000   0.2500000), wk =   0.0468750
        k(    8) = (   0.0000000   0.1250000   0.3750000), wk =   0.0468750
        k(    9) = (   0.0000000   0.1250000  -0.5000000), wk =   0.0234375
        k(   10) = (   0.0000000   0.2500000   0.2500000), wk =   0.0234375
        k(   11) = (   0.0000000   0.2500000   0.3750000), wk =   0.0468750
        k(   12) = (   0.0000000   0.2500000  -0.5000000), wk =   0.0234375
        k(   13) = (   0.0000000   0.3750000   0.3750000), wk =   0.0234375
        k(   14) = (   0.0000000   0.3750000  -0.5000000), wk =   0.0234375
        k(   15) = (   0.0000000  -0.5000000  -0.5000000), wk =   0.0058594
        k(   16) = (   0.1250000   0.1250000   0.1250000), wk =   0.0156250
        k(   17) = (   0.1250000   0.1250000   0.2500000), wk =   0.0468750
        k(   18) = (   0.1250000   0.1250000   0.3750000), wk =   0.0468750
        k(   19) = (   0.1250000   0.1250000  -0.5000000), wk =   0.0234375
        k(   20) = (   0.1250000   0.2500000   0.2500000), wk =   0.0468750
        k(   21) = (   0.1250000   0.2500000   0.3750000), wk =   0.0937500
        k(   22) = (   0.1250000   0.2500000  -0.5000000), wk =   0.0468750
        k(   23) = (   0.1250000   0.3750000   0.3750000), wk =   0.0468750
        k(   24) = (   0.1250000   0.3750000  -0.5000000), wk =   0.0468750
        k(   25) = (   0.1250000  -0.5000000  -0.5000000), wk =   0.0117188
        k(   26) = (   0.2500000   0.2500000   0.2500000), wk =   0.0156250
        k(   27) = (   0.2500000   0.2500000   0.3750000), wk =   0.0468750
        k(   28) = (   0.2500000   0.2500000  -0.5000000), wk =   0.0234375
        k(   29) = (   0.2500000   0.3750000   0.3750000), wk =   0.0468750
        k(   30) = (   0.2500000   0.3750000  -0.5000000), wk =   0.0468750
        k(   31) = (   0.2500000  -0.5000000  -0.5000000), wk =   0.0117188
        k(   32) = (   0.3750000   0.3750000   0.3750000), wk =   0.0156250
        k(   33) = (   0.3750000   0.3750000  -0.5000000), wk =   0.0234375
        k(   34) = (   0.3750000  -0.5000000  -0.5000000), wk =   0.0117188
        k(   35) = (  -0.5000000  -0.5000000  -0.5000000), wk =   0.0019531
        k(   36) = (   0.0000000   0.0000000   0.0000000), wk =   0.0019531
        k(   37) = (   0.0000000   0.0000000   0.1250000), wk =   0.0117188
        k(   38) = (   0.0000000   0.0000000   0.2500000), wk =   0.0117188
        k(   39) = (   0.0000000   0.0000000   0.3750000), wk =   0.0117188
        k(   40) = (   0.0000000   0.0000000  -0.5000000), wk =   0.0058594
        k(   41) = (   0.0000000   0.1250000   0.1250000), wk =   0.0234375
        k(   42) = (   0.0000000   0.1250000   0.2500000), wk =   0.0468750
        k(   43) = (   0.0000000   0.1250000   0.3750000), wk =   0.0468750
        k(   44) = (   0.0000000   0.1250000  -0.5000000), wk =   0.0234375
        k(   45) = (   0.0000000   0.2500000   0.2500000), wk =   0.0234375
        k(   46) = (   0.0000000   0.2500000   0.3750000), wk =   0.0468750
        k(   47) = (   0.0000000   0.2500000  -0.5000000), wk =   0.0234375
        k(   48) = (   0.0000000   0.3750000   0.3750000), wk =   0.0234375
        k(   49) = (   0.0000000   0.3750000  -0.5000000), wk =   0.0234375
        k(   50) = (   0.0000000  -0.5000000  -0.5000000), wk =   0.0058594
        k(   51) = (   0.1250000   0.1250000   0.1250000), wk =   0.0156250
        k(   52) = (   0.1250000   0.1250000   0.2500000), wk =   0.0468750
        k(   53) = (   0.1250000   0.1250000   0.3750000), wk =   0.0468750
        k(   54) = (   0.1250000   0.1250000  -0.5000000), wk =   0.0234375
        k(   55) = (   0.1250000   0.2500000   0.2500000), wk =   0.0468750
        k(   56) = (   0.1250000   0.2500000   0.3750000), wk =   0.0937500
        k(   57) = (   0.1250000   0.2500000  -0.5000000), wk =   0.0468750
        k(   58) = (   0.1250000   0.3750000   0.3750000), wk =   0.0468750
        k(   59) = (   0.1250000   0.3750000  -0.5000000), wk =   0.0468750
        k(   60) = (   0.1250000  -0.5000000  -0.5000000), wk =   0.0117188
        k(   61) = (   0.2500000   0.2500000   0.2500000), wk =   0.0156250
        k(   62) = (   0.2500000   0.2500000   0.3750000), wk =   0.0468750
        k(   63) = (   0.2500000   0.2500000  -0.5000000), wk =   0.0234375
        k(   64) = (   0.2500000   0.3750000   0.3750000), wk =   0.0468750
        k(   65) = (   0.2500000   0.3750000  -0.5000000), wk =   0.0468750
        k(   66) = (   0.2500000  -0.5000000  -0.5000000), wk =   0.0117188
        k(   67) = (   0.3750000   0.3750000   0.3750000), wk =   0.0156250
        k(   68) = (   0.3750000   0.3750000  -0.5000000), wk =   0.0234375
        k(   69) = (   0.3750000  -0.5000000  -0.5000000), wk =   0.0117188
        k(   70) = (  -0.5000000  -0.5000000  -0.5000000), wk =   0.0019531

     Dense  grid:    18325 G-vectors     FFT dimensions: (  36,  36,  36)

     Smooth grid:     3575 G-vectors     FFT dimensions: (  20,  20,  20)

     Largest allocated arrays     est. size (Mb)     dimensions
        Kohn-Sham Wavefunctions         0.03 Mb     (     118,   14)
        Atomic Hubbard wavefuncts       0.02 Mb     (     118,   10)
        NL pseudopotentials             0.06 Mb     (     118,   36)
        Each V/rho on FFT grid          0.36 Mb     (   11664,   2)
        Each G-vector array             0.03 Mb     (    4581)
        G-vector shells                 0.00 Mb     (     222)
     Largest temporary arrays     est. size (Mb)     dimensions
        Auxiliary wavefunctions         0.10 Mb     (     118,   56)
        Each subspace H/S matrix        0.05 Mb     (      56,   56)
        Each <psi_i|beta_j> matrix      0.01 Mb     (      36,   14)
        Arrays for rho mixing           1.42 Mb     (   11664,    8)

     The initial density is read from file :
     ./temp/fe.save/charge-density.dat

 --- in v_hubbard ---
Hubbard energy   -0.0554
 -------
     Number of +U iterations with fixed ns =  0
     Starting occupations:
 --- enter write_ns ---
 LDA+U parameters:
U( 1)     =  0.00000000
alpha( 1) = -0.10000000
U( 2)     =  0.00000000
alpha( 2) =  0.00000000
atom    1   Tr[ns(na)] (up, down, total) =   4.87792  2.65575  7.53367
   spin  1
    eigenvalues: 
  0.968  0.968  0.968  0.987  0.987
    eigenvectors:
  0.000  0.000  0.000  0.659  0.341
  0.071  0.330  0.599  0.000  0.000
  0.352  0.286  0.361  0.000  0.000
  0.000  0.000  0.000  0.341  0.659
  0.577  0.384  0.039  0.000  0.000
    occupations:
  0.987  0.000  0.000  0.000  0.000
  0.000  0.968  0.000  0.000  0.000
  0.000  0.000  0.968  0.000  0.000
  0.000  0.000  0.000  0.987  0.000
  0.000  0.000  0.000  0.000  0.968
   spin  2
    eigenvalues: 
  0.441  0.441  0.591  0.591  0.591
    eigenvectors:
  0.687  0.313  0.000  0.000  0.000
  0.000  0.000  0.072  0.434  0.494
  0.000  0.000  0.325  0.230  0.445
  0.313  0.687  0.000  0.000  0.000
  0.000  0.000  0.603  0.336  0.061
    occupations:
  0.441  0.000  0.000  0.000  0.000
  0.000  0.591  0.000  0.000  0.000
  0.000  0.000  0.591  0.000  0.000
  0.000  0.000  0.000  0.441  0.000
  0.000  0.000  0.000  0.000  0.591
atomic mag. moment =     2.222170
atom    2   Tr[ns(na)] (up, down, total) =   4.87791  2.65574  7.53365
   spin  1
    eigenvalues: 
  0.968  0.968  0.968  0.987  0.987
    eigenvectors:
  0.000  0.000  0.000  0.600  0.400
  0.071  0.294  0.635  0.000  0.000
  0.358  0.309  0.334  0.000  0.000
  0.000  0.000  0.000  0.400  0.600
  0.571  0.397  0.031  0.000  0.000
    occupations:
  0.987  0.000  0.000  0.000  0.000
  0.000  0.968  0.000  0.000  0.000
  0.000  0.000  0.968  0.000  0.000
  0.000  0.000  0.000  0.987  0.000
  0.000  0.000  0.000  0.000  0.968
   spin  2
    eigenvalues: 
  0.441  0.441  0.591  0.591  0.591
    eigenvectors:
  0.521  0.479  0.000  0.000  0.000
  0.000  0.000  0.057  0.282  0.662
  0.000  0.000  0.305  0.378  0.317
  0.479  0.521  0.000  0.000  0.000
  0.000  0.000  0.638  0.340  0.022
    occupations:
  0.441  0.000  0.000  0.000  0.000
  0.000  0.591  0.000  0.000  0.000
  0.000  0.000  0.591  0.000  0.000
  0.000  0.000  0.000  0.441  0.000
  0.000  0.000  0.000  0.000  0.591
atomic mag. moment =     2.222168
N of occupied +U levels =   15.067320
 --- exit write_ns ---
 Atomic wfc used for LDA+U Projector are NOT orthogonalized
     Starting wfc from file

     total cpu time spent up to now is        0.7 secs

     per-process dynamical memory:     9.7 Mb

     Self-consistent Calculation

     iteration #  1     ecut=    30.00 Ry     beta=0.70
     Davidson diagonalization with overlap
     c_bands:  1 eigenvalues not converged
     c_bands:  2 eigenvalues not converged
     c_bands:  1 eigenvalues not converged
     ethr =  1.49E-10,  avg # of iterations =  5.8
 --- enter write_ns ---
 LDA+U parameters:
U( 1)     =  0.00000000
alpha( 1) = -0.10000000
U( 2)     =  0.00000000
alpha( 2) =  0.00000000
atom    1   Tr[ns(na)] (up, down, total) =   4.88188  2.72200  7.60388
   spin  1
    eigenvalues: 
  0.969  0.969  0.969  0.988  0.988
    eigenvectors:
  0.000  0.000  0.000  0.554  0.446
  0.076  0.596  0.328  0.000  0.000
  0.349  0.111  0.540  0.000  0.000
  0.000  0.000  0.000  0.446  0.554
  0.575  0.292  0.132  0.000  0.000
    occupations:
  0.988  0.000  0.000  0.000  0.000
  0.000  0.969  0.000  0.000  0.000
  0.000  0.000  0.969  0.000  0.000
  0.000  0.000  0.000  0.988  0.000
  0.000  0.000  0.000  0.000  0.969
   spin  2
    eigenvalues: 
  0.454  0.454  0.605  0.605  0.605
    eigenvectors:
  0.581  0.419  0.000  0.000  0.000
  0.000  0.000  0.065  0.383  0.552
  0.000  0.000  0.327  0.274  0.399
  0.419  0.581  0.000  0.000  0.000
  0.000  0.000  0.609  0.343  0.049
    occupations:
  0.454  0.000  0.000  0.000  0.000
  0.000  0.605  0.000  0.000  0.000
  0.000  0.000  0.605  0.000  0.000
  0.000  0.000  0.000  0.454  0.000
  0.000  0.000  0.000  0.000  0.605
atomic mag. moment =     2.159883
atom    2   Tr[ns(na)] (up, down, total) =   4.87501  2.60226  7.47727
   spin  1
    eigenvalues: 
  0.967  0.967  0.967  0.987  0.987
    eigenvectors:
  0.000  0.000  0.000  0.698  0.302
  0.075  0.527  0.398  0.000  0.000
  0.345  0.155  0.501  0.000  0.000
  0.000  0.000  0.000  0.302  0.698
  0.580  0.319  0.101  0.000  0.000
    occupations:
  0.987  0.000  0.000  0.000  0.000
  0.000  0.967  0.000  0.000  0.000
  0.000  0.000  0.967  0.000  0.000
  0.000  0.000  0.000  0.987  0.000
  0.000  0.000  0.000  0.000  0.967
   spin  2
    eigenvalues: 
  0.430  0.430  0.581  0.581  0.581
    eigenvectors:
  0.598  0.402  0.000  0.000  0.000
  0.000  0.000  0.078  0.676  0.246
  0.000  0.000  0.320  0.076  0.603
  0.402  0.598  0.000  0.000  0.000
  0.000  0.000  0.602  0.247  0.151
    occupations:
  0.430  0.000  0.000  0.000  0.000
  0.000  0.581  0.000  0.000  0.000
  0.000  0.000  0.581  0.000  0.000
  0.000  0.000  0.000  0.430  0.000
  0.000  0.000  0.000  0.000  0.581
atomic mag. moment =     2.272751
N of occupied +U levels =   15.081147
 --- exit write_ns ---
 --- in v_hubbard ---
Hubbard energy   -0.0557
 -------
 
     Magnetic moment per site:
     atom:    1    charge:    6.5249    magn:    2.4553    constr:    0.0000
     atom:    2    charge:    6.4465    magn:    2.5202    constr:    0.0000

     total cpu time spent up to now is        2.1 secs

     total energy              =    -111.65688731 Ry
     Harris-Foulkes estimate   =    -111.65930719 Ry
     estimated scf accuracy    <       0.00304303 Ry

     total magnetization       =     4.83 Bohr mag/cell
     absolute magnetization    =     5.15 Bohr mag/cell

     iteration #  2     ecut=    30.00 Ry     beta=0.70
     Davidson diagonalization with overlap
     ethr =  1.90E-05,  avg # of iterations =  2.8
 --- enter write_ns ---
 LDA+U parameters:
U( 1)     =  0.00000000
alpha( 1) = -0.10000000
U( 2)     =  0.00000000
alpha( 2) =  0.00000000
atom    1   Tr[ns(na)] (up, down, total) =   4.78696  2.29005  7.07701
   spin  1
    eigenvalues: 
  0.943  0.943  0.943  0.980  0.980
    eigenvectors:
  0.000  0.000  0.000  0.497  0.503
  0.075  0.573  0.352  0.000  0.000
  0.337  0.131  0.533  0.000  0.000
  0.000  0.000  0.000  0.503  0.497
  0.588  0.297  0.115  0.000  0.000
    occupations:
  0.980  0.000  0.000  0.000  0.000
  0.000  0.943  0.000  0.000  0.000
  0.000  0.000  0.943  0.000  0.000
  0.000  0.000  0.000  0.980  0.000
  0.000  0.000  0.000  0.000  0.943
   spin  2
    eigenvalues: 
  0.377  0.377  0.512  0.512  0.512
    eigenvectors:
  0.538  0.462  0.000  0.000  0.000
  0.000  0.000  0.075  0.438  0.487
  0.000  0.000  0.355  0.205  0.440
  0.462  0.538  0.000  0.000  0.000
  0.000  0.000  0.570  0.357  0.073
    occupations:
  0.377  0.000  0.000  0.000  0.000
  0.000  0.512  0.000  0.000  0.000
  0.000  0.000  0.512  0.000  0.000
  0.000  0.000  0.000  0.377  0.000
  0.000  0.000  0.000  0.000  0.512
atomic mag. moment =     2.496912
atom    2   Tr[ns(na)] (up, down, total) =   4.90288  3.07379  7.97667
   spin  1
    eigenvalues: 
  0.971  0.971  0.971  0.995  0.995
    eigenvectors:
  0.000  0.000  0.000  0.690  0.310
  0.075  0.439  0.487  0.000  0.000
  0.348  0.210  0.443  0.000  0.000
  0.000  0.000  0.000  0.310  0.690
  0.578  0.352  0.070  0.000  0.000
    occupations:
  0.995  0.000  0.000  0.000  0.000
  0.000  0.971  0.000  0.000  0.000
  0.000  0.000  0.971  0.000  0.000
  0.000  0.000  0.000  0.995  0.000
  0.000  0.000  0.000  0.000  0.971
   spin  2
    eigenvalues: 
  0.510  0.510  0.685  0.685  0.685
    eigenvectors:
  0.602  0.398  0.000  0.000  0.000
  0.000  0.000  0.071  0.438  0.491
  0.000  0.000  0.349  0.214  0.437
  0.398  0.602  0.000  0.000  0.000
  0.000  0.000  0.580  0.348  0.072
    occupations:
  0.510  0.000  0.000  0.000  0.000
  0.000  0.685  0.000  0.000  0.000
  0.000  0.000  0.685  0.000  0.000
  0.000  0.000  0.000  0.510  0.000
  0.000  0.000  0.000  0.000  0.685
atomic mag. moment =     1.829087
N of occupied +U levels =   15.053676
 --- exit write_ns ---
 --- in v_hubbard ---
Hubbard energy   -0.0555
 -------
 
     Magnetic moment per site:
     atom:    1    charge:    6.4898    magn:    2.4688    constr:    0.0000
     atom:    2    charge:    6.4809    magn:    2.4984    constr:    0.0000

     total cpu time spent up to now is        2.9 secs

     total energy              =    -111.64316956 Ry
     Harris-Foulkes estimate   =    -111.67518377 Ry
     estimated scf accuracy    <       0.26869843 Ry

     total magnetization       =     4.71 Bohr mag/cell
     absolute magnetization    =     5.03 Bohr mag/cell

     iteration #  3     ecut=    30.00 Ry     beta=0.70
     Davidson diagonalization with overlap
     ethr =  1.90E-05,  avg # of iterations =  2.7
 --- enter write_ns ---
 LDA+U parameters:
U( 1)     =  0.00000000
alpha( 1) = -0.10000000
U( 2)     =  0.00000000
alpha( 2) =  0.00000000
atom    1   Tr[ns(na)] (up, down, total) =   4.87212  2.69251  7.56463
   spin  1
    eigenvalues: 
  0.966  0.966  0.966  0.987  0.987
    eigenvectors:
  0.000  0.000  0.000  0.652  0.348
  0.074  0.632  0.294  0.000  0.000
  0.336  0.099  0.565  0.000  0.000
  0.000  0.000  0.000  0.348  0.652
  0.590  0.269  0.141  0.000  0.000
    occupations:
  0.987  0.000  0.000  0.000  0.000
  0.000  0.966  0.000  0.000  0.000
  0.000  0.000  0.966  0.000  0.000
  0.000  0.000  0.000  0.987  0.000
  0.000  0.000  0.000  0.000  0.966
   spin  2
    eigenvalues: 
  0.448  0.448  0.599  0.599  0.599
    eigenvectors:
  0.586  0.414  0.000  0.000  0.000
  0.000  0.000  0.071  0.403  0.526
  0.000  0.000  0.339  0.244  0.417
  0.414  0.586  0.000  0.000  0.000
  0.000  0.000  0.590  0.353  0.057
    occupations:
  0.448  0.000  0.000  0.000  0.000
  0.000  0.599  0.000  0.000  0.000
  0.000  0.000  0.599  0.000  0.000
  0.000  0.000  0.000  0.448  0.000
  0.000  0.000  0.000  0.000  0.599
atomic mag. moment =     2.179607
atom    2   Tr[ns(na)] (up, down, total) =   4.87492  2.63599  7.51091
   spin  1
    eigenvalues: 
  0.967  0.967  0.967  0.987  0.987
    eigenvectors:
  0.000  0.000  0.000  0.493  0.507
  0.077  0.558  0.365  0.000  0.000
  0.357  0.128  0.515  0.000  0.000
  0.000  0.000  0.000  0.507  0.493
  0.566  0.314  0.120  0.000  0.000
    occupations:
  0.987  0.000  0.000  0.000  0.000
  0.000  0.967  0.000  0.000  0.000
  0.000  0.000  0.967  0.000  0.000
  0.000  0.000  0.000  0.987  0.000
  0.000  0.000  0.000  0.000  0.967
   spin  2
    eigenvalues: 
  0.435  0.435  0.588  0.588  0.588
    eigenvectors:
  0.584  0.416  0.000  0.000  0.000
  0.000  0.000  0.069  0.395  0.535
  0.000  0.000  0.332  0.256  0.412
  0.416  0.584  0.000  0.000  0.000
  0.000  0.000  0.599  0.349  0.053
    occupations:
  0.435  0.000  0.000  0.000  0.000
  0.000  0.588  0.000  0.000  0.000
  0.000  0.000  0.588  0.000  0.000
  0.000  0.000  0.000  0.435  0.000
  0.000  0.000  0.000  0.000  0.588
atomic mag. moment =     2.238930
N of occupied +U levels =   15.075545
 --- exit write_ns ---
 --- in v_hubbard ---
Hubbard energy   -0.0555
 -------
 
     Magnetic moment per site:
     atom:    1    charge:    6.4890    magn:    2.4631    constr:    0.0000
     atom:    2    charge:    6.4793    magn:    2.4988    constr:    0.0000

     total cpu time spent up to now is        3.7 secs

     total energy              =    -111.65913044 Ry
     Harris-Foulkes estimate   =    -111.65909910 Ry
     estimated scf accuracy    <       0.00016932 Ry

     total magnetization       =     4.81 Bohr mag/cell
     absolute magnetization    =     5.13 Bohr mag/cell

     iteration #  4     ecut=    30.00 Ry     beta=0.70
     Davidson diagonalization with overlap
     ethr =  1.06E-06,  avg # of iterations =  1.3
 --- enter write_ns ---
 LDA+U parameters:
U( 1)     =  0.00000000
alpha( 1) = -0.10000000
U( 2)     =  0.00000000
alpha( 2) =  0.00000000
atom    1   Tr[ns(na)] (up, down, total) =   4.87283  2.69143  7.56426
   spin  1
    eigenvalues: 
  0.966  0.966  0.966  0.987  0.987
    eigenvectors:
  0.000  0.000  0.000  0.562  0.438
  0.068  0.357  0.576  0.000  0.000
  0.340  0.280  0.380  0.000  0.000
  0.000  0.000  0.000  0.438  0.562
  0.593  0.363  0.044  0.000  0.000
    occupations:
  0.987  0.000  0.000  0.000  0.000
  0.000  0.966  0.000  0.000  0.000
  0.000  0.000  0.966  0.000  0.000
  0.000  0.000  0.000  0.987  0.000
  0.000  0.000  0.000  0.000  0.966
   spin  2
    eigenvalues: 
  0.448  0.448  0.599  0.599  0.599
    eigenvectors:
  0.720  0.280  0.000  0.000  0.000
  0.000  0.000  0.070  0.387  0.543
  0.000  0.000  0.339  0.256  0.405
  0.280  0.720  0.000  0.000  0.000
  0.000  0.000  0.591  0.357  0.052
    occupations:
  0.448  0.000  0.000  0.000  0.000
  0.000  0.599  0.000  0.000  0.000
  0.000  0.000  0.599  0.000  0.000
  0.000  0.000  0.000  0.448  0.000
  0.000  0.000  0.000  0.000  0.599
atomic mag. moment =     2.181406
atom    2   Tr[ns(na)] (up, down, total) =   4.87685  2.63953  7.51638
   spin  1
    eigenvalues: 
  0.967  0.967  0.967  0.988  0.988
    eigenvectors:
  0.000  0.000  0.000  0.574  0.426
  0.075  0.438  0.487  0.000  0.000
  0.345  0.211  0.444  0.000  0.000
  0.000  0.000  0.000  0.426  0.574
  0.580  0.351  0.069  0.000  0.000
    occupations:
  0.988  0.000  0.000  0.000  0.000
  0.000  0.967  0.000  0.000  0.000
  0.000  0.000  0.967  0.000  0.000
  0.000  0.000  0.000  0.988  0.000
  0.000  0.000  0.000  0.000  0.967
   spin  2
    eigenvalues: 
  0.436  0.436  0.589  0.589  0.589
    eigenvectors:
  0.502  0.498  0.000  0.000  0.000
  0.000  0.000  0.067  0.372  0.561
  0.000  0.000  0.345  0.266  0.389
  0.498  0.502  0.000  0.000  0.000
  0.000  0.000  0.588  0.362  0.050
    occupations:
  0.436  0.000  0.000  0.000  0.000
  0.000  0.589  0.000  0.000  0.000
  0.000  0.000  0.589  0.000  0.000
  0.000  0.000  0.000  0.436  0.000
  0.000  0.000  0.000  0.000  0.589
atomic mag. moment =     2.237313
N of occupied +U levels =   15.080638
 --- exit write_ns ---
 --- in v_hubbard ---
Hubbard energy   -0.0556
 -------
 
     Magnetic moment per site:
     atom:    1    charge:    6.4905    magn:    2.4496    constr:    0.0000
     atom:    2    charge:    6.4784    magn:    2.5025    constr:    0.0000

     total cpu time spent up to now is        4.3 secs

     total energy              =    -111.65914051 Ry
     Harris-Foulkes estimate   =    -111.65914139 Ry
     estimated scf accuracy    <       0.00006238 Ry

     total magnetization       =     4.81 Bohr mag/cell
     absolute magnetization    =     5.14 Bohr mag/cell

     iteration #  5     ecut=    30.00 Ry     beta=0.70
     Davidson diagonalization with overlap
     ethr =  3.90E-07,  avg # of iterations =  1.0
 --- enter write_ns ---
 LDA+U parameters:
U( 1)     =  0.00000000
alpha( 1) = -0.10000000
U( 2)     =  0.00000000
alpha( 2) =  0.00000000
atom    1   Tr[ns(na)] (up, down, total) =   4.86978  2.68969  7.55948
   spin  1
    eigenvalues: 
  0.966  0.966  0.966  0.987  0.987
    eigenvectors:
  0.000  0.000  0.000  0.671  0.329
  0.063  0.311  0.626  0.000  0.000
  0.324  0.332  0.344  0.000  0.000
  0.000  0.000  0.000  0.329  0.671
  0.613  0.357  0.030  0.000  0.000
    occupations:
  0.987  0.000  0.000  0.000  0.000
  0.000  0.966  0.000  0.000  0.000
  0.000  0.000  0.966  0.000  0.000
  0.000  0.000  0.000  0.987  0.000
  0.000  0.000  0.000  0.000  0.966
   spin  2
    eigenvalues: 
  0.447  0.447  0.598  0.598  0.598
    eigenvectors:
  0.528  0.472  0.000  0.000  0.000
  0.000  0.000  0.069  0.447  0.485
  0.000  0.000  0.344  0.214  0.442
  0.472  0.528  0.000  0.000  0.000
  0.000  0.000  0.587  0.339  0.073
    occupations:
  0.447  0.000  0.000  0.000  0.000
  0.000  0.598  0.000  0.000  0.000
  0.000  0.000  0.598  0.000  0.000
  0.000  0.000  0.000  0.447  0.000
  0.000  0.000  0.000  0.000  0.598
atomic mag. moment =     2.180090
atom    2   Tr[ns(na)] (up, down, total) =   4.87664  2.64492  7.52156
   spin  1
    eigenvalues: 
  0.967  0.967  0.967  0.988  0.988
    eigenvectors:
  0.000  0.000  0.000  0.603  0.397
  0.065  0.387  0.548  0.000  0.000
  0.312  0.281  0.407  0.000  0.000
  0.000  0.000  0.000  0.397  0.603
  0.623  0.332  0.045  0.000  0.000
    occupations:
  0.988  0.000  0.000  0.000  0.000
  0.000  0.967  0.000  0.000  0.000
  0.000  0.000  0.967  0.000  0.000
  0.000  0.000  0.000  0.988  0.000
  0.000  0.000  0.000  0.000  0.967
   spin  2
    eigenvalues: 
  0.436  0.436  0.591  0.591  0.591
    eigenvectors:
  0.639  0.361  0.000  0.000  0.000
  0.000  0.000  0.068  0.496  0.435
  0.000  0.000  0.321  0.195  0.484
  0.361  0.639  0.000  0.000  0.000
  0.000  0.000  0.610  0.309  0.081
    occupations:
  0.436  0.000  0.000  0.000  0.000
  0.000  0.591  0.000  0.000  0.000
  0.000  0.000  0.591  0.000  0.000
  0.000  0.000  0.000  0.436  0.000
  0.000  0.000  0.000  0.000  0.591
atomic mag. moment =     2.231721
N of occupied +U levels =   15.081038
 --- exit write_ns ---
 --- in v_hubbard ---
Hubbard energy   -0.0556
 -------
 
     Magnetic moment per site:
     atom:    1    charge:    6.4908    magn:    2.4459    constr:    0.0000
     atom:    2    charge:    6.4783    magn:    2.5028    constr:    0.0000

     total cpu time spent up to now is        4.9 secs

     total energy              =    -111.65914732 Ry
     Harris-Foulkes estimate   =    -111.65914678 Ry
     estimated scf accuracy    <       0.00000040 Ry

     total magnetization       =     4.80 Bohr mag/cell
     absolute magnetization    =     5.13 Bohr mag/cell

     iteration #  6     ecut=    30.00 Ry     beta=0.70
     Davidson diagonalization with overlap
     ethr =  2.52E-09,  avg # of iterations =  3.4
 --- enter write_ns ---
 LDA+U parameters:
U( 1)     =  0.00000000
alpha( 1) = -0.10000000
U( 2)     =  0.00000000
alpha( 2) =  0.00000000
atom    1   Tr[ns(na)] (up, down, total) =   4.86904  2.69064  7.55968
   spin  1
    eigenvalues: 
  0.965  0.965  0.965  0.987  0.987
    eigenvectors:
  0.000  0.000  0.000  0.679  0.321
  0.070  0.487  0.442  0.000  0.000
  0.335  0.190  0.475  0.000  0.000
  0.000  0.000  0.000  0.321  0.679
  0.595  0.322  0.083  0.000  0.000
    occupations:
  0.987  0.000  0.000  0.000  0.000
  0.000  0.965  0.000  0.000  0.000
  0.000  0.000  0.965  0.000  0.000
  0.000  0.000  0.000  0.987  0.000
  0.000  0.000  0.000  0.000  0.965
   spin  2
    eigenvalues: 
  0.447  0.447  0.599  0.599  0.599
    eigenvectors:
  0.647  0.353  0.000  0.000  0.000
  0.000  0.000  0.074  0.584  0.341
  0.000  0.000  0.330  0.128  0.542
  0.353  0.647  0.000  0.000  0.000
  0.000  0.000  0.596  0.288  0.116
    occupations:
  0.447  0.000  0.000  0.000  0.000
  0.000  0.599  0.000  0.000  0.000
  0.000  0.000  0.599  0.000  0.000
  0.000  0.000  0.000  0.447  0.000
  0.000  0.000  0.000  0.000  0.599
atomic mag. moment =     2.178402
atom    2   Tr[ns(na)] (up, down, total) =   4.87636  2.64532  7.52168
   spin  1
    eigenvalues: 
  0.967  0.967  0.967  0.988  0.988
    eigenvectors:
  0.000  0.000  0.000  0.664  0.336
  0.072  0.445  0.483  0.000  0.000
  0.347  0.209  0.444  0.000  0.000
  0.000  0.000  0.000  0.336  0.664
  0.581  0.346  0.073  0.000  0.000
    occupations:
  0.988  0.000  0.000  0.000  0.000
  0.000  0.967  0.000  0.000  0.000
  0.000  0.000  0.967  0.000  0.000
  0.000  0.000  0.000  0.988  0.000
  0.000  0.000  0.000  0.000  0.967
   spin  2
    eigenvalues: 
  0.436  0.436  0.591  0.591  0.591
    eigenvectors:
  0.486  0.514  0.000  0.000  0.000
  0.000  0.000  0.072  0.435  0.493
  0.000  0.000  0.337  0.222  0.441
  0.514  0.486  0.000  0.000  0.000
  0.000  0.000  0.591  0.344  0.066
    occupations:
  0.436  0.000  0.000  0.000  0.000
  0.000  0.591  0.000  0.000  0.000
  0.000  0.000  0.591  0.000  0.000
  0.000  0.000  0.000  0.436  0.000
  0.000  0.000  0.000  0.000  0.591
atomic mag. moment =     2.231048
N of occupied +U levels =   15.081362
 --- exit write_ns ---
 --- in v_hubbard ---
Hubbard energy   -0.0556
 -------
 
     Magnetic moment per site:
     atom:    1    charge:    6.4908    magn:    2.4446    constr:    0.0000
     atom:    2    charge:    6.4784    magn:    2.5024    constr:    0.0000

     total cpu time spent up to now is        5.8 secs

     total energy              =    -111.65914791 Ry
     Harris-Foulkes estimate   =    -111.65914777 Ry
     estimated scf accuracy    <       0.00000020 Ry

     total magnetization       =     4.80 Bohr mag/cell
     absolute magnetization    =     5.13 Bohr mag/cell

     iteration #  7     ecut=    30.00 Ry     beta=0.70
     Davidson diagonalization with overlap
     ethr =  1.25E-09,  avg # of iterations =  1.0
 --- enter write_ns ---
 LDA+U parameters:
U( 1)     =  0.00000000
alpha( 1) = -0.10000000
U( 2)     =  0.00000000
alpha( 2) =  0.00000000
atom    1   Tr[ns(na)] (up, down, total) =   4.86873  2.69105  7.55979
   spin  1
    eigenvalues: 
  0.965  0.965  0.965  0.987  0.987
    eigenvectors:
  0.000  0.000  0.000  0.693  0.307
  0.071  0.358  0.571  0.000  0.000
  0.352  0.266  0.382  0.000  0.000
  0.000  0.000  0.000  0.307  0.693
  0.577  0.376  0.047  0.000  0.000
    occupations:
  0.987  0.000  0.000  0.000  0.000
  0.000  0.965  0.000  0.000  0.000
  0.000  0.000  0.965  0.000  0.000
  0.000  0.000  0.000  0.987  0.000
  0.000  0.000  0.000  0.000  0.965
   spin  2
    eigenvalues: 
  0.447  0.447  0.599  0.599  0.599
    eigenvectors:
  0.672  0.328  0.000  0.000  0.000
  0.000  0.000  0.070  0.316  0.614
  0.000  0.000  0.346  0.302  0.352
  0.328  0.672  0.000  0.000  0.000
  0.000  0.000  0.584  0.382  0.034
    occupations:
  0.447  0.000  0.000  0.000  0.000
  0.000  0.599  0.000  0.000  0.000
  0.000  0.000  0.599  0.000  0.000
  0.000  0.000  0.000  0.447  0.000
  0.000  0.000  0.000  0.000  0.599
atomic mag. moment =     2.177677
atom    2   Tr[ns(na)] (up, down, total) =   4.87615  2.64554  7.52169
   spin  1
    eigenvalues: 
  0.967  0.967  0.967  0.988  0.988
    eigenvectors:
  0.000  0.000  0.000  0.649  0.351
  0.070  0.379  0.552  0.000  0.000
  0.350  0.255  0.395  0.000  0.000
  0.000  0.000  0.000  0.351  0.649
  0.581  0.366  0.053  0.000  0.000
    occupations:
  0.988  0.000  0.000  0.000  0.000
  0.000  0.967  0.000  0.000  0.000
  0.000  0.000  0.967  0.000  0.000
  0.000  0.000  0.000  0.988  0.000
  0.000  0.000  0.000  0.000  0.967
   spin  2
    eigenvalues: 
  0.436  0.436  0.591  0.591  0.591
    eigenvectors:
  0.706  0.294  0.000  0.000  0.000
  0.000  0.000  0.069  0.389  0.541
  0.000  0.000  0.344  0.252  0.404
  0.294  0.706  0.000  0.000  0.000
  0.000  0.000  0.586  0.359  0.055
    occupations:
  0.436  0.000  0.000  0.000  0.000
  0.000  0.591  0.000  0.000  0.000
  0.000  0.000  0.591  0.000  0.000
  0.000  0.000  0.000  0.436  0.000
  0.000  0.000  0.000  0.000  0.591
atomic mag. moment =     2.230610
N of occupied +U levels =   15.081477
 --- exit write_ns ---
 --- in v_hubbard ---
Hubbard energy   -0.0556
 -------
 
     Magnetic moment per site:
     atom:    1    charge:    6.4908    magn:    2.4419    constr:    0.0000
     atom:    2    charge:    6.4784    magn:    2.5008    constr:    0.0000

     total cpu time spent up to now is        6.4 secs

     total energy              =    -111.65914795 Ry
     Harris-Foulkes estimate   =    -111.65914795 Ry
     estimated scf accuracy    <       0.00000017 Ry

     total magnetization       =     4.80 Bohr mag/cell
     absolute magnetization    =     5.12 Bohr mag/cell

     iteration #  8     ecut=    30.00 Ry     beta=0.70
     Davidson diagonalization with overlap
     ethr =  1.04E-09,  avg # of iterations =  2.0
 --- enter write_ns ---
 LDA+U parameters:
U( 1)     =  0.00000000
alpha( 1) = -0.10000000
U( 2)     =  0.00000000
alpha( 2) =  0.00000000
atom    1   Tr[ns(na)] (up, down, total) =   4.86808  2.69208  7.56017
   spin  1
    eigenvalues: 
  0.965  0.965  0.965  0.987  0.987
    eigenvectors:
  0.000  0.000  0.000  0.331  0.669
  0.069  0.403  0.528  0.000  0.000
  0.329  0.253  0.418  0.000  0.000
  0.000  0.000  0.000  0.669  0.331
  0.602  0.344  0.054  0.000  0.000
    occupations:
  0.987  0.000  0.000  0.000  0.000
  0.000  0.965  0.000  0.000  0.000
  0.000  0.000  0.965  0.000  0.000
  0.000  0.000  0.000  0.987  0.000
  0.000  0.000  0.000  0.000  0.965
   spin  2
    eigenvalues: 
  0.447  0.447  0.599  0.599  0.599
    eigenvectors:
  0.616  0.384  0.000  0.000  0.000
  0.000  0.000  0.069  0.432  0.498
  0.000  0.000  0.351  0.218  0.430
  0.384  0.616  0.000  0.000  0.000
  0.000  0.000  0.579  0.349  0.071
    occupations:
  0.447  0.000  0.000  0.000  0.000
  0.000  0.599  0.000  0.000  0.000
  0.000  0.000  0.599  0.000  0.000
  0.000  0.000  0.000  0.447  0.000
  0.000  0.000  0.000  0.000  0.599
atomic mag. moment =     2.176001
atom    2   Tr[ns(na)] (up, down, total) =   4.87563  2.64620  7.52182
   spin  1
    eigenvalues: 
  0.967  0.967  0.967  0.988  0.988
    eigenvectors:
  0.000  0.000  0.000  0.637  0.363
  0.074  0.489  0.437  0.000  0.000
  0.340  0.182  0.478  0.000  0.000
  0.000  0.000  0.000  0.363  0.637
  0.586  0.329  0.085  0.000  0.000
    occupations:
  0.988  0.000  0.000  0.000  0.000
  0.000  0.967  0.000  0.000  0.000
  0.000  0.000  0.967  0.000  0.000
  0.000  0.000  0.000  0.988  0.000
  0.000  0.000  0.000  0.000  0.967
   spin  2
    eigenvalues: 
  0.436  0.436  0.591  0.591  0.591
    eigenvectors:
  0.534  0.466  0.000  0.000  0.000
  0.000  0.000  0.070  0.449  0.481
  0.000  0.000  0.332  0.218  0.450
  0.466  0.534  0.000  0.000  0.000
  0.000  0.000  0.598  0.333  0.069
    occupations:
  0.436  0.000  0.000  0.000  0.000
  0.000  0.591  0.000  0.000  0.000
  0.000  0.000  0.591  0.000  0.000
  0.000  0.000  0.000  0.436  0.000
  0.000  0.000  0.000  0.000  0.591
atomic mag. moment =     2.229430
N of occupied +U levels =   15.081992
 --- exit write_ns ---
 --- in v_hubbard ---
Hubbard energy   -0.0556
 -------
 
     Magnetic moment per site:
     atom:    1    charge:    6.4909    magn:    2.4402    constr:    0.0000
     atom:    2    charge:    6.4784    magn:    2.4992    constr:    0.0000

     total cpu time spent up to now is        7.1 secs

     total energy              =    -111.65914812 Ry
     Harris-Foulkes estimate   =    -111.65914818 Ry
     estimated scf accuracy    <       0.00000007 Ry

     total magnetization       =     4.80 Bohr mag/cell
     absolute magnetization    =     5.12 Bohr mag/cell

     iteration #  9     ecut=    30.00 Ry     beta=0.70
     Davidson diagonalization with overlap
     ethr =  4.45E-10,  avg # of iterations =  2.2
 --- enter write_ns ---
 LDA+U parameters:
U( 1)     =  0.00000000
alpha( 1) = -0.10000000
U( 2)     =  0.00000000
alpha( 2) =  0.00000000
atom    1   Tr[ns(na)] (up, down, total) =   4.86765  2.69289  7.56053
   spin  1
    eigenvalues: 
  0.965  0.965  0.965  0.987  0.987
    eigenvectors:
  0.000  0.000  0.000  0.574  0.426
  0.066  0.314  0.620  0.000  0.000
  0.342  0.312  0.346  0.000  0.000
  0.000  0.000  0.000  0.426  0.574
  0.592  0.374  0.034  0.000  0.000
    occupations:
  0.987  0.000  0.000  0.000  0.000
  0.000  0.965  0.000  0.000  0.000
  0.000  0.000  0.965  0.000  0.000
  0.000  0.000  0.000  0.987  0.000
  0.000  0.000  0.000  0.000  0.965
   spin  2
    eigenvalues: 
  0.447  0.447  0.600  0.600  0.600
    eigenvectors:
  0.626  0.374  0.000  0.000  0.000
  0.000  0.000  0.073  0.590  0.337
  0.000  0.000  0.336  0.123  0.541
  0.374  0.626  0.000  0.000  0.000
  0.000  0.000  0.591  0.287  0.122
    occupations:
  0.447  0.000  0.000  0.000  0.000
  0.000  0.600  0.000  0.000  0.000
  0.000  0.000  0.600  0.000  0.000
  0.000  0.000  0.000  0.447  0.000
  0.000  0.000  0.000  0.000  0.600
atomic mag. moment =     2.174761
atom    2   Tr[ns(na)] (up, down, total) =   4.87518  2.64661  7.52179
   spin  1
    eigenvalues: 
  0.967  0.967  0.967  0.988  0.988
    eigenvectors:
  0.000  0.000  0.000  0.739  0.261
  0.075  0.600  0.324  0.000  0.000
  0.343  0.112  0.545  0.000  0.000
  0.000  0.000  0.000  0.261  0.739
  0.581  0.288  0.131  0.000  0.000
    occupations:
  0.988  0.000  0.000  0.000  0.000
  0.000  0.967  0.000  0.000  0.000
  0.000  0.000  0.967  0.000  0.000
  0.000  0.000  0.000  0.988  0.000
  0.000  0.000  0.000  0.000  0.967
   spin  2
    eigenvalues: 
  0.436  0.436  0.592  0.592  0.592
    eigenvectors:
  0.633  0.367  0.000  0.000  0.000
  0.000  0.000  0.072  0.413  0.515
  0.000  0.000  0.344  0.232  0.424
  0.367  0.633  0.000  0.000  0.000
  0.000  0.000  0.584  0.354  0.062
    occupations:
  0.436  0.000  0.000  0.000  0.000
  0.000  0.592  0.000  0.000  0.000
  0.000  0.000  0.592  0.000  0.000
  0.000  0.000  0.000  0.436  0.000
  0.000  0.000  0.000  0.000  0.592
atomic mag. moment =     2.228568
N of occupied +U levels =   15.082323
 --- exit write_ns ---
 --- in v_hubbard ---
Hubbard energy   -0.0556
 -------
 
     Magnetic moment per site:
     atom:    1    charge:    6.4908    magn:    2.4402    constr:    0.0000
     atom:    2    charge:    6.4784    magn:    2.4991    constr:    0.0000

     total cpu time spent up to now is        7.8 secs

     End of self-consistent calculation

 ------ SPIN UP ------------


          k = 0.0000 0.0000 0.0000 (   461 PWs)   bands (ev):

     4.7362   8.1418   8.1418  10.5016  10.5016  10.5016  11.6835  11.6835
    12.7892  12.7892  12.7892  22.6900  22.6900  22.6900

     occupation numbers 
     1.0000   1.0000   1.0000   1.0000   1.0000   1.0000   1.0000   1.0000
     0.8958   0.8958   0.8958   0.0000   0.0000   0.0000

          k = 0.0000 0.0000 0.1250 (   449 PWs)   bands (ev):

     5.0511   8.2726   8.2765  10.5025  10.5025  10.5855  11.5491  11.7364
    12.5483  12.5483  12.6987  20.7550  23.2632  23.2632

     occupation numbers 
     1.0000   1.0000   1.0000   1.0000   1.0000   1.0000   1.0000   1.0000
     1.0025   1.0025   1.0354   0.0000   0.0000   0.0000

          k = 0.0000 0.0000 0.2500 (   445 PWs)   bands (ev):

     5.9452   8.5912   8.6479  10.5311  10.5311  10.8245  11.1637  11.8898
    11.9920  11.9920  12.4423  17.6311  24.8052  24.8052

     occupation numbers 
     1.0000   1.0000   1.0000   1.0000   1.0000   1.0000   1.0000   1.0000
     1.0000   1.0000   1.0001   0.0000   0.0000   0.0000

          k = 0.0000 0.0000 0.3750 (   438 PWs)   bands (ev):

     7.2264   8.7952   9.2172  10.5829  10.6536  10.6536  11.1865  11.3980
    11.3980  12.0630  12.1939  14.8534  27.0004  27.0004

     occupation numbers 
     1.0000   1.0000   1.0000   1.0000   1.0000   1.0000   1.0000   1.0000
     1.0000   1.0000   1.0000   0.0000   0.0000   0.0000

          k = 0.0000 0.0000-0.5000 (   466 PWs)   bands (ev):

     8.3743   8.4102   9.8883   9.9059  10.9190  10.9190  10.9491  10.9491
    11.5965  11.6452  12.9541  13.0327  29.6057  29.6058

     occupation numbers 
     1.0000   1.0000   1.0000   1.0000   1.0000   1.0000   1.0000   1.0000
     1.0000   1.0000   0.0539  -0.0354   0.0000   0.0000

          k = 0.0000 0.1250 0.1250 (   451 PWs)   bands (ev):

     5.3560   8.3848   8.4210  10.3437  10.4787  10.8241  11.5533  11.6975
    12.1412  12.3124  12.8261  20.8558  21.6506  23.7862

     occupation numbers 
     1.0000   1.0000   1.0000   1.0000   1.0000   1.0000   1.0000   1.0000
     1.0000   1.0000   0.7255   0.0000   0.0000   0.0000

          k = 0.0000 0.1250 0.2500 (   438 PWs)   bands (ev):

     6.2135   8.6656   8.7938  10.2495  10.4413  11.1736  11.3238  11.5290
    11.7996  11.8319  12.7327  17.9732  22.6535  25.2262

     occupation numbers 
     1.0000   1.0000   1.0000   1.0000   1.0000   1.0000   1.0000   1.0000
     1.0000   1.0000   1.0211   0.0000   0.0000   0.0000

          k = 0.0000 0.1250 0.3750 (   440 PWs)   bands (ev):

     7.4080   8.8434   9.2986  10.2941  10.3137  10.9471  11.1019  11.3558
    11.5893  12.1526  12.4377  15.1304  24.4156  27.3300

     occupation numbers 
     1.0000   1.0000   1.0000   1.0000   1.0000   1.0000   1.0000   1.0000
     1.0000   1.0000   1.0000   0.0000   0.0000   0.0000

          k = 0.0000 0.1250-0.5000 (   448 PWs)   bands (ev):

     8.4433   8.4612   9.8612   9.8727  10.5181  10.5256  11.1447  11.1635
    12.0184  12.0417  13.0591  13.1275  26.4730  26.4850

     occupation numbers 
     1.0000   1.0000   1.0000   1.0000   1.0000   1.0000   1.0000   1.0000
     1.0000   1.0000  -0.0304  -0.0097   0.0000   0.0000

          k = 0.0000 0.2500 0.2500 (   441 PWs)   bands (ev):

     6.9246   8.7349   9.2543   9.9764  10.4239  10.8789  11.4657  11.5230
    11.6622  11.7469  12.9159  17.9696  20.5034  26.4348

     occupation numbers 
     1.0000   1.0000   1.0000   1.0000   1.0000   1.0000   1.0000   1.0000
     1.0000   1.0000   0.2014   0.0000   0.0000   0.0000

          k = 0.0000 0.2500 0.3750 (   445 PWs)   bands (ev):

     7.7627   8.6684   9.8257   9.8723  10.3333  10.5536  11.3549  11.5299
    12.0271  12.1411  12.8398  15.6362  21.4287  25.6254

     occupation numbers 
     1.0000   1.0000   1.0000   1.0000   1.0000   1.0000   1.0000   1.0000
     1.0000   1.0000   0.6478   0.0000   0.0000   0.0000

          k = 0.0000 0.2500-0.5000 (   446 PWs)   bands (ev):

     8.3535   8.3665   9.9864   9.9872  10.3177  10.3313  11.4770  11.4801
    12.5512  12.5612  13.3176  13.3608  23.2986  23.3049

     occupation numbers 
     1.0000   1.0000   1.0000   1.0000   1.0000   1.0000   1.0000   1.0000
     1.0027   1.0036   0.0000   0.0000   0.0000   0.0000

          k = 0.0000 0.3750 0.3750 (   442 PWs)   bands (ev):

     7.9833   8.3772   9.6262   9.8612  10.5986  11.4640  11.5060  11.8197
    11.8917  12.6092  13.0062  15.2810  20.0238  22.9217

     occupation numbers 
     1.0000   1.0000   1.0000   1.0000   1.0000   1.0000   1.0000   1.0000
     1.0000   1.0118  -0.0293   0.0000   0.0000   0.0000

          k = 0.0000 0.3750-0.5000 (   436 PWs)   bands (ev):

     8.1291   8.1552   9.6165   9.6166  11.2512  11.2885  11.6698  11.6920
    12.9160  12.9186  13.5342  13.5511  20.8883  20.8900

     occupation numbers 
     1.0000   1.0000   1.0000   1.0000   1.0000   1.0000   1.0000   1.0000
     0.2008   0.1883   0.0000   0.0000   0.0000   0.0000

          k = 0.0000-0.5000-0.5000 (   428 PWs)   bands (ev):

     8.0325   8.0617   9.4859   9.4859  11.7197  11.7469  11.8271  11.8868
    13.0442  13.0442  13.5634  13.5634  19.9119  19.9188

     occupation numbers 
     1.0000   1.0000   1.0000   1.0000   1.0000   1.0000   1.0000   1.0000
    -0.0341  -0.0341   0.0000   0.0000   0.0000   0.0000

          k = 0.1250 0.1250 0.1250 (   446 PWs)   bands (ev):

     5.6537   8.5286   8.5286  10.3098  10.3098  11.0756  11.6200  11.6200
    11.6322  12.5870  12.5870  21.3536  21.3536  22.4102

     occupation numbers 
     1.0000   1.0000   1.0000   1.0000   1.0000   1.0000   1.0000   1.0000
     1.0000   1.0071   1.0071   0.0000   0.0000   0.0000

          k = 0.1250 0.1250 0.2500 (   438 PWs)   bands (ev):

     6.4834   8.8314   8.8528  10.1766  10.2168  11.0057  11.4166  11.5036
    11.7914  12.0557  12.6334  18.3486  22.6453  23.3217

     occupation numbers 
     1.0000   1.0000   1.0000   1.0000   1.0000   1.0000   1.0000   1.0000
     1.0000   1.0000   1.0188   0.0000   0.0000   0.0000

          k = 0.1250 0.1250 0.3750 (   443 PWs)   bands (ev):

     7.6102   8.9974   9.2663  10.0490  10.2525  10.6010  11.2094  11.5337
    11.8703  12.2321  12.4365  15.4839  24.3916  24.9584

     occupation numbers 
     1.0000   1.0000   1.0000   1.0000   1.0000   1.0000   1.0000   1.0000
     1.0000   1.0000   1.0000   0.0000   0.0000   0.0000

          k = 0.1250 0.1250-0.5000 (   448 PWs)   bands (ev):

     8.5676   8.5727   9.7164   9.7257  10.4512  10.4555  11.2131  11.2256
    12.1116  12.1462  13.3542  13.3999  26.3746  26.3943

     occupation numbers 
     1.0000   1.0000   1.0000   1.0000   1.0000   1.0000   1.0000   1.0000
     1.0000   1.0000   0.0000   0.0000   0.0000   0.0000

          k = 0.1250 0.2500 0.2500 (   435 PWs)   bands (ev):

     7.1960   8.9238   9.2921   9.9220  10.1380  10.4158  11.5636  11.7349
    11.8298  12.0668  12.6590  18.5029  20.5958  24.0009

     occupation numbers 
     1.0000   1.0000   1.0000   1.0000   1.0000   1.0000   1.0000   1.0000
     1.0000   1.0000   1.0274   0.0000   0.0000   0.0000

          k = 0.1250 0.2500 0.3750 (   441 PWs)   bands (ev):

     8.0111   8.8677   9.6972   9.7968  10.1771  10.2709  11.5130  11.5542
    11.9069  12.5710  12.7616  16.1650  21.5817  25.4507

     occupation numbers 
     1.0000   1.0000   1.0000   1.0000   1.0000   1.0000   1.0000   1.0000
     1.0000   1.0047   0.9768   0.0000   0.0000   0.0000

          k = 0.1250 0.2500-0.5000 (   440 PWs)   bands (ev):

     8.5521   8.5706   9.7602   9.7654  10.3424  10.3466  11.4968  11.5009
    12.2316  12.2697  13.9929  14.0104  23.4671  23.4745

     occupation numbers 
     1.0000   1.0000   1.0000   1.0000   1.0000   1.0000   1.0000   1.0000
     1.0000   1.0000   0.0000   0.0000   0.0000   0.0000

          k = 0.1250 0.3750 0.3750 (   445 PWs)   bands (ev):

     8.2269   8.5701   9.5890   9.7495  10.5109  10.9663  11.5953  11.7014
    11.8247  12.5951  13.4956  16.0725  20.0862  23.0878

     occupation numbers 
     1.0000   1.0000   1.0000   1.0000   1.0000   1.0000   1.0000   1.0000
     1.0000   1.0086   0.0000   0.0000   0.0000   0.0000

          k = 0.1250 0.3750-0.5000 (   440 PWs)   bands (ev):

     8.3383   8.3657   9.5694   9.5701  11.0826  11.1065  11.6877  11.7097
    12.2297  12.2608  14.6417  14.6448  21.0070  21.0079

     occupation numbers 
     1.0000   1.0000   1.0000   1.0000   1.0000   1.0000   1.0000   1.0000
     1.0000   1.0000   0.0000   0.0000   0.0000   0.0000

          k = 0.1250-0.5000-0.5000 (   444 PWs)   bands (ev):

     8.2418   8.2712   9.4613   9.4613  11.7449  11.7743  11.8319  11.8916
    11.9184  11.9184  14.9696  14.9696  19.9675  19.9744

     occupation numbers 
     1.0000   1.0000   1.0000   1.0000   1.0000   1.0000   1.0000   1.0000
     1.0000   1.0000   0.0000   0.0000   0.0000   0.0000

          k = 0.2500 0.2500 0.2500 (   443 PWs)   bands (ev):

     7.9018   9.3846   9.3846   9.7936   9.7936   9.8175  11.6951  11.6951
    12.1656  12.1656  12.7954  19.8311  19.8311  22.0553

     occupation numbers 
     1.0000   1.0000   1.0000   1.0000   1.0000   1.0000   1.0000   1.0000
     1.0000   1.0000   0.8721   0.0000   0.0000   0.0000

          k = 0.2500 0.2500 0.3750 (   445 PWs)   bands (ev):

     8.5934   9.2366   9.4838   9.6623   9.8740  10.0079  11.6399  11.7874
    11.8578  12.2259  13.6909  17.2470  21.6093  22.8427

     occupation numbers 
     1.0000   1.0000   1.0000   1.0000   1.0000   1.0000   1.0000   1.0000
     1.0000   1.0000   0.0000   0.0000   0.0000   0.0000

          k = 0.2500 0.2500-0.5000 (   442 PWs)   bands (ev):

     8.8965   8.9246   9.5623   9.5704  10.2025  10.2041  11.6264  11.6417
    12.0307  12.0789  15.0735  15.0758  23.6887  23.6961

     occupation numbers 
     1.0000   1.0000   1.0000   1.0000   1.0000   1.0000   1.0000   1.0000
     1.0000   1.0000   0.0000   0.0000   0.0000   0.0000

          k = 0.2500 0.3750 0.3750 (   438 PWs)   bands (ev):

     8.8676   9.0041   9.5164   9.6072  10.1603  10.2374  11.7567  11.7979
    11.8339  12.1148  14.7625  17.6968  20.2492  23.5582

     occupation numbers 
     1.0000   1.0000   1.0000   1.0000   1.0000   1.0000   1.0000   1.0000
     1.0000   1.0000   0.0000   0.0000   0.0000   0.0000

          k = 0.2500 0.3750-0.5000 (   442 PWs)   bands (ev):

     8.8526   8.8802   9.5037   9.5065  10.5155  10.5214  11.7588  11.7896
    11.9287  11.9794  16.1816  16.1841  21.4290  21.4290

     occupation numbers 
     1.0000   1.0000   1.0000   1.0000   1.0000   1.0000   1.0000   1.0000
     1.0000   1.0000   0.0000   0.0000   0.0000   0.0000

          k = 0.2500-0.5000-0.5000 (   436 PWs)   bands (ev):

     8.7818   8.8096   9.4239   9.4239  10.8682  10.8682  11.8024  11.8395
    11.8435  11.9035  16.8589  16.8589  20.1928  20.1998

     occupation numbers 
     1.0000   1.0000   1.0000   1.0000   1.0000   1.0000   1.0000   1.0000
     1.0000   1.0000   0.0000   0.0000   0.0000   0.0000

          k = 0.3750 0.3750 0.3750 (   450 PWs)   bands (ev):

     9.1610   9.4934   9.4934   9.7130   9.8756   9.8756  11.8343  11.8343
    11.9123  11.9123  16.1399  19.6879  19.6879  22.0161

     occupation numbers 
     1.0000   1.0000   1.0000   1.0000   1.0000   1.0000   1.0000   1.0000
     1.0000   1.0000   0.0000   0.0000   0.0000   0.0000

          k = 0.3750 0.3750-0.5000 (   452 PWs)   bands (ev):

     9.2360   9.2515   9.5975   9.6095  10.0607  10.0609  11.8276  11.8694
    11.8729  11.9244  17.7916  17.7956  21.9397  21.9514

     occupation numbers 
     1.0000   1.0000   1.0000   1.0000   1.0000   1.0000   1.0000   1.0000
     1.0000   1.0000   0.0000   0.0000   0.0000   0.0000

          k = 0.3750-0.5000-0.5000 (   440 PWs)   bands (ev):

     9.3845   9.4047   9.4592   9.4592  10.1205  10.1205  11.8479  11.8554
    11.8990  11.9155  18.9906  18.9906  20.7306  20.7404

     occupation numbers 
     1.0000   1.0000   1.0000   1.0000   1.0000   1.0000   1.0000   1.0000
     1.0000   1.0000   0.0000   0.0000   0.0000   0.0000

          k =-0.5000-0.5000-0.5000 (   432 PWs)   bands (ev):

     9.6588   9.6588   9.6588   9.6726   9.6726   9.6726  11.8602  11.8602
    11.9205  11.9205  21.3280  21.3280  21.3280  21.3498

     occupation numbers 
     1.0000   1.0000   1.0000   1.0000   1.0000   1.0000   1.0000   1.0000
     1.0000   1.0000   0.0000   0.0000   0.0000   0.0000

 ------ SPIN DOWN ----------


          k = 0.0000 0.0000 0.0000 (   461 PWs)   bands (ev):

     4.8138  10.2043  10.2043  12.8896  12.8896  12.8896  14.8288  14.8288
    15.5216  15.5216  15.5216  22.8955  22.8955  22.8955

     occupation numbers 
     1.0000   1.0000   1.0000   0.3435   0.3435   0.3435   0.0000   0.0000
     0.0000   0.0000   0.0000   0.0000   0.0000   0.0000

          k = 0.0000 0.0000 0.1250 (   449 PWs)   bands (ev):

     5.1305  10.3002  10.3655  12.8758  12.8758  12.9851  14.6438  14.8984
    15.1798  15.1798  15.4160  21.3029  23.5733  23.5733

     occupation numbers 
     1.0000   1.0000   1.0000   0.4267   0.4267  -0.0097   0.0000   0.0000
     0.0000   0.0000   0.0000   0.0000   0.0000   0.0000

          k = 0.0000 0.0000 0.2500 (   445 PWs)   bands (ev):

     6.0416  10.4297  10.8320  12.8692  12.8692  13.2571  14.1166  14.4541
    14.4541  15.0771  15.1176  18.6724  25.2949  25.2949

     occupation numbers 
     1.0000   1.0000   1.0000   0.4671   0.4671  -0.0002   0.0000   0.0000
     0.0000   0.0000   0.0000   0.0000   0.0000   0.0000

          k = 0.0000 0.0000 0.3750 (   438 PWs)   bands (ev):

     7.4182  10.1124  11.5504  12.9599  12.9599  13.3334  13.6708  13.7462
    13.7462  14.6777  15.3118  16.6480  27.6164  27.6164

     occupation numbers 
     1.0000   1.0000   1.0000   0.0384   0.0384   0.0000   0.0000   0.0000
     0.0000   0.0000   0.0000   0.0000   0.0000   0.0000

          k = 0.0000 0.0000-0.5000 (   466 PWs)   bands (ev):

     8.9442   8.9918  12.4017  12.4531  13.2191  13.2191  13.2529  13.2529
    14.1591  14.1777  15.6750  15.6832  30.2681  30.2716

     occupation numbers 
     1.0000   1.0000   1.0000   1.0001  -0.0007  -0.0007  -0.0002  -0.0002
     0.0000   0.0000   0.0000   0.0000   0.0000   0.0000

          k = 0.0000 0.1250 0.1250 (   451 PWs)   bands (ev):

     5.4396  10.4493  10.4646  12.6885  12.8299  13.2502  14.6385  14.6757
    14.8461  14.8495  15.5643  21.5032  22.2882  24.1615

     occupation numbers 
     1.0000   1.0000   1.0000   1.0349   0.7043  -0.0002   0.0000   0.0000
     0.0000   0.0000   0.0000   0.0000   0.0000   0.0000

          k = 0.0000 0.1250 0.2500 (   438 PWs)   bands (ev):

     6.3258  10.5766  10.8884  12.5542  12.7375  13.6429  13.9277  14.2172
    14.2898  15.0059  15.4482  19.0530  23.4564  25.7292

     occupation numbers 
     1.0000   1.0000   1.0000   1.0030   1.0161   0.0000   0.0000   0.0000
     0.0000   0.0000   0.0000   0.0000   0.0000   0.0000

          k = 0.0000 0.1250 0.3750 (   440 PWs)   bands (ev):

     7.6532  10.2349  11.5190  12.5677  12.6050  13.2553  13.7826  13.8103
    14.1128  15.0954  15.2608  16.8684  25.2797  27.9363

     occupation numbers 
     1.0000   1.0000   1.0000   1.0043   1.0108  -0.0002   0.0000   0.0000
     0.0000   0.0000   0.0000   0.0000   0.0000   0.0000

          k = 0.0000 0.1250-0.5000 (   448 PWs)   bands (ev):

     9.1141   9.1442  12.1766  12.2056  12.7825  12.8002  13.6269  13.6339
    14.6169  14.6216  15.6961  15.7030  27.2906  27.2946

     occupation numbers 
     1.0000   1.0000   1.0000   1.0000   0.9193   0.8521   0.0000   0.0000
     0.0000   0.0000   0.0000   0.0000   0.0000   0.0000

          k = 0.0000 0.2500 0.2500 (   441 PWs)   bands (ev):

     7.1250  10.6802  11.1901  12.2268  12.5385  13.1764  13.9065  14.1981
    14.5027  14.9151  15.6684  19.0510  21.7034  26.9754

     occupation numbers 
     1.0000   1.0000   1.0000   1.0000   1.0019  -0.0027   0.0000   0.0000
     0.0000   0.0000   0.0000   0.0000   0.0000   0.0000

          k = 0.0000 0.2500 0.3750 (   445 PWs)   bands (ev):

     8.2638  10.2849  11.7410  12.0841  12.4174  12.5619  13.9610  14.3637
    14.7495  15.1221  15.5736  17.1775  22.6191  26.4954

     occupation numbers 
     1.0000   1.0000   1.0000   1.0000   1.0000   1.0037   0.0000   0.0000
     0.0000   0.0000   0.0000   0.0000   0.0000   0.0000

          k = 0.0000 0.2500-0.5000 (   446 PWs)   bands (ev):

     9.4211   9.4316  12.1845  12.1921  12.1962  12.2203  14.1892  14.1962
    15.2346  15.2347  15.6960  15.6984  24.3504  24.3506

     occupation numbers 
     1.0000   1.0000   1.0000   1.0000   1.0000   1.0000   0.0000   0.0000
     0.0000   0.0000   0.0000   0.0000   0.0000   0.0000

          k = 0.0000 0.3750 0.3750 (   442 PWs)   bands (ev):

     8.9761   9.9825  11.7937  12.0343  12.4051  12.6726  14.2802  14.6405
    15.0257  15.2984  15.7733  16.6531  21.5275  24.0295

     occupation numbers 
     1.0000   1.0000   1.0000   1.0000   1.0000   1.0315   0.0000   0.0000
     0.0000   0.0000   0.0000   0.0000   0.0000   0.0000

          k = 0.0000 0.3750-0.5000 (   436 PWs)   bands (ev):

     9.5245   9.5623  11.7686  11.7705  12.8912  12.9062  14.5710  14.5803
    15.4605  15.4667  15.6650  15.6654  22.2621  22.2667

     occupation numbers 
     1.0000   1.0000   1.0000   1.0000   0.3338   0.2506   0.0000   0.0000
     0.0000   0.0000   0.0000   0.0000   0.0000   0.0000

          k = 0.0000-0.5000-0.5000 (   428 PWs)   bands (ev):

     9.5214   9.5656  11.6220  11.6220  13.5609  13.5609  14.7002  14.7090
    15.0763  15.0937  15.8175  15.8175  21.5009  21.5083

     occupation numbers 
     1.0000   1.0000   1.0000   1.0000   0.0000   0.0000   0.0000   0.0000
     0.0000   0.0000   0.0000   0.0000   0.0000   0.0000

          k = 0.1250 0.1250 0.1250 (   446 PWs)   bands (ev):

     5.7426  10.5801  10.5801  12.6357  12.6357  13.5181  14.0012  14.7305
    14.7305  15.2369  15.2369  22.0965  22.0965  23.0226

     occupation numbers 
     1.0000   1.0000   1.0000   1.0196   1.0196   0.0000   0.0000   0.0000
     0.0000   0.0000   0.0000   0.0000   0.0000   0.0000

          k = 0.1250 0.1250 0.2500 (   438 PWs)   bands (ev):

     6.6083  10.7372  10.9472  12.4421  12.5001  13.2589  13.9763  14.4134
    14.5815  14.9510  15.3117  19.4786  23.5291  24.0220

     occupation numbers 
     1.0000   1.0000   1.0000   1.0001   1.0005  -0.0002   0.0000   0.0000
     0.0000   0.0000   0.0000   0.0000   0.0000   0.0000

          k = 0.1250 0.1250 0.3750 (   443 PWs)   bands (ev):

     7.8941  10.3883  11.4657  12.3055  12.4352  12.8490  14.0191  14.0290
    14.4852  15.1185  15.2313  17.2038  25.3230  25.6757

     occupation numbers 
     1.0000   1.0000   1.0000   1.0000   1.0000   0.5923   0.0000   0.0000
     0.0000   0.0000   0.0000   0.0000   0.0000   0.0000

          k = 0.1250 0.1250-0.5000 (   448 PWs)   bands (ev):

     9.3001   9.3155  11.9680  11.9795  12.6206  12.6211  13.8175  13.8190
    14.8654  14.8697  15.8230  15.8293  27.2318  27.2414

     occupation numbers 
     1.0000   1.0000   1.0000   1.0000   1.0149   1.0150   0.0000   0.0000
     0.0000   0.0000   0.0000   0.0000   0.0000   0.0000

          k = 0.1250 0.2500 0.2500 (   435 PWs)   bands (ev):

     7.4006  10.8807  11.2284  12.1433  12.2893  12.5795  14.3876  14.5494
    14.5913  14.8892  15.3562  19.6496  21.7706  24.7577

     occupation numbers 
     1.0000   1.0000   1.0000   1.0000   1.0000   1.0059   0.0000   0.0000
     0.0000   0.0000   0.0000   0.0000   0.0000   0.0000

          k = 0.1250 0.2500 0.3750 (   441 PWs)   bands (ev):

     8.5201  10.4958  11.6250  11.9667  12.1850  12.3110  14.2150  14.4374
    15.0044  15.2656  15.2995  17.7433  22.7296  26.1746

     occupation numbers 
     1.0000   1.0000   1.0000   1.0000   1.0000   1.0000   0.0000   0.0000
     0.0000   0.0000   0.0000   0.0000   0.0000   0.0000

          k = 0.1250 0.2500-0.5000 (   440 PWs)   bands (ev):

     9.6390   9.6585  11.8417  11.8496  12.2297  12.2529  14.2737  14.2812
    15.1330  15.1385  16.1856  16.1890  24.4749  24.4760

     occupation numbers 
     1.0000   1.0000   1.0000   1.0000   1.0000   1.0000   0.0000   0.0000
     0.0000   0.0000   0.0000   0.0000   0.0000   0.0000

          k = 0.1250 0.3750 0.3750 (   445 PWs)   bands (ev):

     9.2379  10.1993  11.7204  11.8722  12.2515  12.3292  14.4301  14.6869
    15.0299  15.3643  15.8107  17.5102  21.5402  24.1436

     occupation numbers 
     1.0000   1.0000   1.0000   1.0000   1.0000   1.0000   0.0000   0.0000
     0.0000   0.0000   0.0000   0.0000   0.0000   0.0000

          k = 0.1250 0.3750-0.5000 (   440 PWs)   bands (ev):

     9.7600   9.8027  11.6773  11.6820  12.5730  12.5877  14.6301  14.6402
    15.1694  15.1802  16.5230  16.5237  22.3205  22.3246

     occupation numbers 
     1.0000   1.0000   1.0000   1.0000   1.0050   1.0072   0.0000   0.0000
     0.0000   0.0000   0.0000   0.0000   0.0000   0.0000

          k = 0.1250-0.5000-0.5000 (   444 PWs)   bands (ev):

     9.7544   9.8019  11.5592  11.5592  13.0285  13.0285  14.7531  14.7632
    15.0830  15.1003  16.6276  16.6276  21.5041  21.5115

     occupation numbers 
     1.0000   1.0000   1.0000   1.0000  -0.0354  -0.0354   0.0000   0.0000
     0.0000   0.0000   0.0000   0.0000   0.0000   0.0000

          k = 0.2500 0.2500 0.2500 (   443 PWs)   bands (ev):

     8.1623  11.3210  11.3210  11.8141  11.9401  11.9401  14.8040  14.8040
    14.8568  14.8568  15.2315  21.0096  21.0096  22.9924

     occupation numbers 
     1.0000   1.0000   1.0000   1.0000   1.0000   1.0000   0.0000   0.0000
     0.0000   0.0000   0.0000   0.0000   0.0000   0.0000

          k = 0.2500 0.2500 0.3750 (   445 PWs)   bands (ev):

     9.1919  10.9042  11.4272  11.7185  11.8365  11.9418  14.5718  14.6687
    15.0239  15.0526  15.9934  18.7484  22.7165  23.7162

     occupation numbers 
     1.0000   1.0000   1.0000   1.0000   1.0000   1.0000   0.0000   0.0000
     0.0000   0.0000   0.0000   0.0000   0.0000   0.0000

          k = 0.2500 0.2500-0.5000 (   442 PWs)   bands (ev):

    10.1246  10.1671  11.5364  11.5585  11.9689  12.0070  14.5428  14.5539
    15.0918  15.1020  17.0428  17.0438  24.6512  24.6531

     occupation numbers 
     1.0000   1.0000   1.0000   1.0000   1.0000   1.0000   0.0000   0.0000
     0.0000   0.0000   0.0000   0.0000   0.0000   0.0000

          k = 0.2500 0.3750 0.3750 (   438 PWs)   bands (ev):

     9.9371  10.7207  11.5529  11.5707  11.7576  11.9004  14.7312  14.8430
    15.0334  15.0682  16.8235  19.0319  21.5602  24.3670

     occupation numbers 
     1.0000   1.0000   1.0000   1.0000   1.0000   1.0000   0.0000   0.0000
     0.0000   0.0000   0.0000   0.0000   0.0000   0.0000

          k = 0.2500 0.3750-0.5000 (   442 PWs)   bands (ev):

    10.3629  10.4183  11.4817  11.4974  11.9901  12.0143  14.8039  14.8170
    15.0897  15.1041  17.8417  17.8424  22.5774  22.5806

     occupation numbers 
     1.0000   1.0000   1.0000   1.0000   1.0000   1.0000   0.0000   0.0000
     0.0000   0.0000   0.0000   0.0000   0.0000   0.0000

          k = 0.2500-0.5000-0.5000 (   436 PWs)   bands (ev):

    10.3588  10.4145  11.4204  11.4204  12.2483  12.2483  14.8917  14.9048
    15.0996  15.1167  18.2398  18.2398  21.5753  21.5828

     occupation numbers 
     1.0000   1.0000   1.0000   1.0000   1.0000   1.0000   0.0000   0.0000
     0.0000   0.0000   0.0000   0.0000   0.0000   0.0000

          k = 0.3750 0.3750 0.3750 (   450 PWs)   bands (ev):

    10.7399  11.0164  11.4037  11.4037  11.5699  11.5699  14.9849  14.9849
    15.0247  15.0247  17.9300  20.8664  20.8664  22.9855

     occupation numbers 
     1.0000   1.0000   1.0000   1.0000   1.0000   1.0000   0.0000   0.0000
     0.0000   0.0000   0.0000   0.0000   0.0000   0.0000

          k = 0.3750 0.3750-0.5000 (   452 PWs)   bands (ev):

    10.9366  11.0000  11.3665  11.4197  11.5762  11.6337  14.9893  15.0047
    15.0883  15.1042  19.2269  19.2290  22.9416  22.9519

     occupation numbers 
     1.0000   1.0000   1.0000   1.0000   1.0000   1.0000   0.0000   0.0000
     0.0000   0.0000   0.0000   0.0000   0.0000   0.0000

          k = 0.3750-0.5000-0.5000 (   440 PWs)   bands (ev):

    11.0358  11.0999  11.3172  11.3172  11.6787  11.6787  15.0491  15.0649
    15.1166  15.1336  20.1813  20.1813  21.8883  21.8976

     occupation numbers 
     1.0000   1.0000   1.0000   1.0000   1.0000   1.0000   0.0000   0.0000
     0.0000   0.0000   0.0000   0.0000   0.0000   0.0000

          k =-0.5000-0.5000-0.5000 (   432 PWs)   bands (ev):

    11.3430  11.3430  11.3430  11.4107  11.4107  11.4107  15.1235  15.1235
    15.1404  15.1404  22.3406  22.3406  22.3406  22.3573

     occupation numbers 
     1.0000   1.0000   1.0000   1.0000   1.0000   1.0000   0.0000   0.0000
     0.0000   0.0000   0.0000   0.0000   0.0000   0.0000

     the Fermi energy is    12.8639 ev

!    total energy              =    -111.65914825 Ry
     Harris-Foulkes estimate   =    -111.65914824 Ry
     estimated scf accuracy    <          9.1E-10 Ry

     The total energy is the sum of the following terms:

     one-electron contribution =      13.79867193 Ry
     hartree contribution      =      13.44054996 Ry
     xc contribution           =     -52.89771162 Ry
     ewald contribution        =     -85.94499659 Ry
     Hubbard energy            =      -0.05556890 Ry
     smearing contrib. (-TS)   =      -0.00009303 Ry

     total magnetization       =     4.80 Bohr mag/cell
     absolute magnetization    =     5.12 Bohr mag/cell

     convergence has been achieved in   9 iterations

     Writing output data file fe.save
 
     init_run     :      0.62s CPU      0.62s WALL (       1 calls)
     electrons    :      6.93s CPU      7.09s WALL (       1 calls)

     Called by init_run:
     wfcinit      :      0.02s CPU      0.02s WALL (       1 calls)
     potinit      :      0.18s CPU      0.18s WALL (       1 calls)

     Called by electrons:
     c_bands      :      5.03s CPU      5.17s WALL (       9 calls)
     sum_band     :      1.25s CPU      1.26s WALL (       9 calls)
     v_of_rho     :      0.26s CPU      0.26s WALL (      10 calls)
     v_h          :      0.00s CPU      0.01s WALL (      10 calls)
     v_xc         :      0.26s CPU      0.26s WALL (      10 calls)
     newd         :      0.40s CPU      0.40s WALL (      10 calls)
     mix_rho      :      0.02s CPU      0.02s WALL (       9 calls)

     Called by c_bands:
     init_us_2    :      0.13s CPU      0.13s WALL (    1330 calls)
     cegterg      :      4.49s CPU      4.66s WALL (     630 calls)

     Called by sum_band:
     sum_band:bec :      0.03s CPU      0.02s WALL (     630 calls)
     addusdens    :      0.50s CPU      0.50s WALL (       9 calls)

     Called by *egterg:
     h_psi        :      2.53s CPU      2.63s WALL (    2186 calls)
     s_psi        :      0.15s CPU      0.16s WALL (    2256 calls)
     g_psi        :      0.03s CPU      0.05s WALL (    1556 calls)
     cdiaghg      :      1.20s CPU      1.26s WALL (    2116 calls)
     cegterg:over :      0.21s CPU      0.20s WALL (    1556 calls)
     cegterg:upda :      0.10s CPU      0.11s WALL (    1556 calls)
     cegterg:last :      0.10s CPU      0.07s WALL (     692 calls)

     Called by h_psi:
     h_psi:vloc   :      2.00s CPU      2.09s WALL (    2186 calls)
     h_psi:vnl    :      0.33s CPU      0.36s WALL (    2186 calls)
     add_vuspsi   :      0.12s CPU      0.17s WALL (    2186 calls)
     vhpsi        :      0.19s CPU      0.17s WALL (    2186 calls)

     General routines
     calbec       :      0.40s CPU      0.36s WALL (    5702 calls)
     fft          :      0.14s CPU      0.14s WALL (     298 calls)
     ffts         :      0.00s CPU      0.00s WALL (      38 calls)
     fftw         :      1.86s CPU      1.96s WALL (   54440 calls)
     interpolate  :      0.02s CPU      0.02s WALL (      38 calls)
     davcio       :      0.01s CPU      0.00s WALL (     210 calls)
 
     Parallel routines
     fft_scatter  :      0.90s CPU      0.88s WALL (   54776 calls)
     Hubbard U routines
     new_ns       :      0.04s CPU      0.05s WALL (       9 calls)
     vhpsi        :      0.19s CPU      0.17s WALL (    2186 calls)
 
     PWSCF        :     7.83s CPU         8.01s WALL

 
   This run was terminated on:  17:33:12  30Jun2014            

=------------------------------------------------------------------------------=
   JOB DONE.
=------------------------------------------------------------------------------=
