
     Program PWSCF v.5.1 starts on 30Jun2014 at 17:32:34 

     This program is part of the open-source Quantum ESPRESSO suite
     for quantum simulation of materials; please cite
         "P. Giannozzi et al., J. Phys.:Condens. Matter 21 395502 (2009);
          URL http://www.quantum-espresso.org", 
     in publications or presentations arising from this work. More details at
     http://www.quantum-espresso.org/quote

     Parallel version (MPI), running on     4 processors
     R & G space division:  proc/nbgrp/npool/nimage =       4
     Waiting for input...
     Reading input from standard input

     Current dimensions of program PWSCF are:
     Max number of different atomic species (ntypx) = 10
     Max number of k-points (npk) =  40000
     Max angular momentum in pseudopotentials (lmaxx) =  3
               file Fe.pbe-nd-rrkjus.UPF: wavefunction(s)  4S renormalized
               file Fe.pbe-nd-rrkjus.UPF: wavefunction(s)  4S renormalized

     Subspace diagonalization in iterative solution of the eigenvalue problem:
     a serial algorithm will be used

 
     Parallelization info
     --------------------
     sticks:   dense  smooth     PW     G-vecs:    dense   smooth      PW
     Min         211      71     24                 4581      891     184
     Max         212      72     25                 4582      900     187
     Sum         845     285     97                18325     3575     739
 
     Generating pointlists ...
     new r_m :   0.3572 (alat units)  1.9362 (a.u.) for type    1
     new r_m :   0.3572 (alat units)  1.9362 (a.u.) for type    2


     bravais-lattice index     =            1
     lattice parameter (alat)  =       5.4200  a.u.
     unit-cell volume          =     159.2201 (a.u.)^3
     number of atoms/cell      =            2
     number of atomic types    =            2
     number of electrons       =        16.00
     number of Kohn-Sham states=           14
     kinetic-energy cutoff     =      30.0000  Ry
     charge density cutoff     =     360.0000  Ry
     convergence threshold     =      1.0E-09
     mixing beta               =       0.7000
     number of iterations used =            8  plain     mixing
     Exchange-correlation      =  SLA  PW   PBE  PBE ( 1  4  3  4 0)

     celldm(1)=   5.420000  celldm(2)=   0.000000  celldm(3)=   0.000000
     celldm(4)=   0.000000  celldm(5)=   0.000000  celldm(6)=   0.000000

     crystal axes: (cart. coord. in units of alat)
               a(1) = (   1.000000   0.000000   0.000000 )  
               a(2) = (   0.000000   1.000000   0.000000 )  
               a(3) = (   0.000000   0.000000   1.000000 )  

     reciprocal axes: (cart. coord. in units 2 pi/alat)
               b(1) = (  1.000000  0.000000  0.000000 )  
               b(2) = (  0.000000  1.000000  0.000000 )  
               b(3) = (  0.000000  0.000000  1.000000 )  


     PseudoPot. # 1 for Fe read from file:
     ../pseudo/Fe.pbe-nd-rrkjus.UPF
     MD5 check sum: 23c640529ef232ac9996b4ec1b0ce2fd
     Pseudo is Ultrasoft + core correction, Zval =  8.0
     Generated by new atomic code, or converted to UPF format
     Using radial grid of  957 points,  6 beta functions with: 
                l(1) =   0
                l(2) =   0
                l(3) =   1
                l(4) =   1
                l(5) =   2
                l(6) =   2
     Q(r) pseudized with 0 coefficients 


     PseudoPot. # 2 for Fe read from file:
     ../pseudo/Fe.pbe-nd-rrkjus.UPF
     MD5 check sum: 23c640529ef232ac9996b4ec1b0ce2fd
     Pseudo is Ultrasoft + core correction, Zval =  8.0
     Generated by new atomic code, or converted to UPF format
     Using radial grid of  957 points,  6 beta functions with: 
                l(1) =   0
                l(2) =   0
                l(3) =   1
                l(4) =   1
                l(5) =   2
                l(6) =   2
     Q(r) pseudized with 0 coefficients 


     atomic species   valence    mass     pseudopotential
        Fe1            8.00     1.00000     Fe( 1.00)
        Fe             8.00     1.00000     Fe( 1.00)

     Starting magnetic structure 
     atomic species   magnetization
        Fe1          0.600
        Fe           0.600


     Simplified LDA+U calculation (l_max = 2) with parameters (eV):
     atomic species    L          U    alpha       J0     beta
        Fe1            2     0.0000   0.0000   0.0000   0.0000
        Fe             2     0.0000   0.0000   0.0000   0.0000



     48 Sym. Ops., with inversion, found


                                    s                        frac. trans.

      isym =  1     identity                                     

 cryst.   s( 1) = (     1          0          0      )
                  (     0          1          0      )
                  (     0          0          1      )

 cart.    s( 1) = (  1.0000000  0.0000000  0.0000000 )
                  (  0.0000000  1.0000000  0.0000000 )
                  (  0.0000000  0.0000000  1.0000000 )


      isym =  2     180 deg rotation - cart. axis [0,0,1]        

 cryst.   s( 2) = (    -1          0          0      )
                  (     0         -1          0      )
                  (     0          0          1      )

 cart.    s( 2) = ( -1.0000000  0.0000000  0.0000000 )
                  (  0.0000000 -1.0000000  0.0000000 )
                  (  0.0000000  0.0000000  1.0000000 )


      isym =  3     180 deg rotation - cart. axis [0,1,0]        

 cryst.   s( 3) = (    -1          0          0      )
                  (     0          1          0      )
                  (     0          0         -1      )

 cart.    s( 3) = ( -1.0000000  0.0000000  0.0000000 )
                  (  0.0000000  1.0000000  0.0000000 )
                  (  0.0000000  0.0000000 -1.0000000 )


      isym =  4     180 deg rotation - cart. axis [1,0,0]        

 cryst.   s( 4) = (     1          0          0      )
                  (     0         -1          0      )
                  (     0          0         -1      )

 cart.    s( 4) = (  1.0000000  0.0000000  0.0000000 )
                  (  0.0000000 -1.0000000  0.0000000 )
                  (  0.0000000  0.0000000 -1.0000000 )


      isym =  5     180 deg rotation - cart. axis [1,1,0]        

 cryst.   s( 5) = (     0          1          0      )
                  (     1          0          0      )
                  (     0          0         -1      )

 cart.    s( 5) = (  0.0000000  1.0000000  0.0000000 )
                  (  1.0000000  0.0000000  0.0000000 )
                  (  0.0000000  0.0000000 -1.0000000 )


      isym =  6     180 deg rotation - cart. axis [1,-1,0]       

 cryst.   s( 6) = (     0         -1          0      )
                  (    -1          0          0      )
                  (     0          0         -1      )

 cart.    s( 6) = (  0.0000000 -1.0000000  0.0000000 )
                  ( -1.0000000  0.0000000  0.0000000 )
                  (  0.0000000  0.0000000 -1.0000000 )


      isym =  7      90 deg rotation - cart. axis [0,0,-1]       

 cryst.   s( 7) = (     0         -1          0      )
                  (     1          0          0      )
                  (     0          0          1      )

 cart.    s( 7) = (  0.0000000  1.0000000  0.0000000 )
                  ( -1.0000000  0.0000000  0.0000000 )
                  (  0.0000000  0.0000000  1.0000000 )


      isym =  8      90 deg rotation - cart. axis [0,0,1]        

 cryst.   s( 8) = (     0          1          0      )
                  (    -1          0          0      )
                  (     0          0          1      )

 cart.    s( 8) = (  0.0000000 -1.0000000  0.0000000 )
                  (  1.0000000  0.0000000  0.0000000 )
                  (  0.0000000  0.0000000  1.0000000 )


      isym =  9     180 deg rotation - cart. axis [1,0,1]        

 cryst.   s( 9) = (     0          0          1      )
                  (     0         -1          0      )
                  (     1          0          0      )

 cart.    s( 9) = (  0.0000000  0.0000000  1.0000000 )
                  (  0.0000000 -1.0000000  0.0000000 )
                  (  1.0000000  0.0000000  0.0000000 )


      isym = 10     180 deg rotation - cart. axis [-1,0,1]       

 cryst.   s(10) = (     0          0         -1      )
                  (     0         -1          0      )
                  (    -1          0          0      )

 cart.    s(10) = (  0.0000000  0.0000000 -1.0000000 )
                  (  0.0000000 -1.0000000  0.0000000 )
                  ( -1.0000000  0.0000000  0.0000000 )


      isym = 11      90 deg rotation - cart. axis [0,1,0]        

 cryst.   s(11) = (     0          0         -1      )
                  (     0          1          0      )
                  (     1          0          0      )

 cart.    s(11) = (  0.0000000  0.0000000  1.0000000 )
                  (  0.0000000  1.0000000  0.0000000 )
                  ( -1.0000000  0.0000000  0.0000000 )


      isym = 12      90 deg rotation - cart. axis [0,-1,0]       

 cryst.   s(12) = (     0          0          1      )
                  (     0          1          0      )
                  (    -1          0          0      )

 cart.    s(12) = (  0.0000000  0.0000000 -1.0000000 )
                  (  0.0000000  1.0000000  0.0000000 )
                  (  1.0000000  0.0000000  0.0000000 )


      isym = 13     180 deg rotation - cart. axis [0,1,1]        

 cryst.   s(13) = (    -1          0          0      )
                  (     0          0          1      )
                  (     0          1          0      )

 cart.    s(13) = ( -1.0000000  0.0000000  0.0000000 )
                  (  0.0000000  0.0000000  1.0000000 )
                  (  0.0000000  1.0000000  0.0000000 )


      isym = 14     180 deg rotation - cart. axis [0,1,-1]       

 cryst.   s(14) = (    -1          0          0      )
                  (     0          0         -1      )
                  (     0         -1          0      )

 cart.    s(14) = ( -1.0000000  0.0000000  0.0000000 )
                  (  0.0000000  0.0000000 -1.0000000 )
                  (  0.0000000 -1.0000000  0.0000000 )


      isym = 15      90 deg rotation - cart. axis [-1,0,0]       

 cryst.   s(15) = (     1          0          0      )
                  (     0          0         -1      )
                  (     0          1          0      )

 cart.    s(15) = (  1.0000000  0.0000000  0.0000000 )
                  (  0.0000000  0.0000000  1.0000000 )
                  (  0.0000000 -1.0000000  0.0000000 )


      isym = 16      90 deg rotation - cart. axis [1,0,0]        

 cryst.   s(16) = (     1          0          0      )
                  (     0          0          1      )
                  (     0         -1          0      )

 cart.    s(16) = (  1.0000000  0.0000000  0.0000000 )
                  (  0.0000000  0.0000000 -1.0000000 )
                  (  0.0000000  1.0000000  0.0000000 )


      isym = 17     120 deg rotation - cart. axis [-1,-1,-1]     

 cryst.   s(17) = (     0          0          1      )
                  (     1          0          0      )
                  (     0          1          0      )

 cart.    s(17) = (  0.0000000  1.0000000  0.0000000 )
                  (  0.0000000  0.0000000  1.0000000 )
                  (  1.0000000  0.0000000  0.0000000 )


      isym = 18     120 deg rotation - cart. axis [-1,1,1]       

 cryst.   s(18) = (     0          0         -1      )
                  (    -1          0          0      )
                  (     0          1          0      )

 cart.    s(18) = (  0.0000000 -1.0000000  0.0000000 )
                  (  0.0000000  0.0000000  1.0000000 )
                  ( -1.0000000  0.0000000  0.0000000 )


      isym = 19     120 deg rotation - cart. axis [1,1,-1]       

 cryst.   s(19) = (     0          0         -1      )
                  (     1          0          0      )
                  (     0         -1          0      )

 cart.    s(19) = (  0.0000000  1.0000000  0.0000000 )
                  (  0.0000000  0.0000000 -1.0000000 )
                  ( -1.0000000  0.0000000  0.0000000 )


      isym = 20     120 deg rotation - cart. axis [1,-1,1]       

 cryst.   s(20) = (     0          0          1      )
                  (    -1          0          0      )
                  (     0         -1          0      )

 cart.    s(20) = (  0.0000000 -1.0000000  0.0000000 )
                  (  0.0000000  0.0000000 -1.0000000 )
                  (  1.0000000  0.0000000  0.0000000 )


      isym = 21     120 deg rotation - cart. axis [1,1,1]        

 cryst.   s(21) = (     0          1          0      )
                  (     0          0          1      )
                  (     1          0          0      )

 cart.    s(21) = (  0.0000000  0.0000000  1.0000000 )
                  (  1.0000000  0.0000000  0.0000000 )
                  (  0.0000000  1.0000000  0.0000000 )


      isym = 22     120 deg rotation - cart. axis [-1,1,-1]      

 cryst.   s(22) = (     0         -1          0      )
                  (     0          0         -1      )
                  (     1          0          0      )

 cart.    s(22) = (  0.0000000  0.0000000  1.0000000 )
                  ( -1.0000000  0.0000000  0.0000000 )
                  (  0.0000000 -1.0000000  0.0000000 )


      isym = 23     120 deg rotation - cart. axis [1,-1,-1]      

 cryst.   s(23) = (     0         -1          0      )
                  (     0          0          1      )
                  (    -1          0          0      )

 cart.    s(23) = (  0.0000000  0.0000000 -1.0000000 )
                  ( -1.0000000  0.0000000  0.0000000 )
                  (  0.0000000  1.0000000  0.0000000 )


      isym = 24     120 deg rotation - cart. axis [-1,-1,1]      

 cryst.   s(24) = (     0          1          0      )
                  (     0          0         -1      )
                  (    -1          0          0      )

 cart.    s(24) = (  0.0000000  0.0000000 -1.0000000 )
                  (  1.0000000  0.0000000  0.0000000 )
                  (  0.0000000 -1.0000000  0.0000000 )


      isym = 25     inversion                                    

 cryst.   s(25) = (    -1          0          0      )
                  (     0         -1          0      )
                  (     0          0         -1      )

 cart.    s(25) = ( -1.0000000  0.0000000  0.0000000 )
                  (  0.0000000 -1.0000000  0.0000000 )
                  (  0.0000000  0.0000000 -1.0000000 )


      isym = 26     inv. 180 deg rotation - cart. axis [0,0,1]   

 cryst.   s(26) = (     1          0          0      )
                  (     0          1          0      )
                  (     0          0         -1      )

 cart.    s(26) = (  1.0000000  0.0000000  0.0000000 )
                  (  0.0000000  1.0000000  0.0000000 )
                  (  0.0000000  0.0000000 -1.0000000 )


      isym = 27     inv. 180 deg rotation - cart. axis [0,1,0]   

 cryst.   s(27) = (     1          0          0      )
                  (     0         -1          0      )
                  (     0          0          1      )

 cart.    s(27) = (  1.0000000  0.0000000  0.0000000 )
                  (  0.0000000 -1.0000000  0.0000000 )
                  (  0.0000000  0.0000000  1.0000000 )


      isym = 28     inv. 180 deg rotation - cart. axis [1,0,0]   

 cryst.   s(28) = (    -1          0          0      )
                  (     0          1          0      )
                  (     0          0          1      )

 cart.    s(28) = ( -1.0000000  0.0000000  0.0000000 )
                  (  0.0000000  1.0000000  0.0000000 )
                  (  0.0000000  0.0000000  1.0000000 )


      isym = 29     inv. 180 deg rotation - cart. axis [1,1,0]   

 cryst.   s(29) = (     0         -1          0      )
                  (    -1          0          0      )
                  (     0          0          1      )

 cart.    s(29) = (  0.0000000 -1.0000000  0.0000000 )
                  ( -1.0000000  0.0000000  0.0000000 )
                  (  0.0000000  0.0000000  1.0000000 )


      isym = 30     inv. 180 deg rotation - cart. axis [1,-1,0]  

 cryst.   s(30) = (     0          1          0      )
                  (     1          0          0      )
                  (     0          0          1      )

 cart.    s(30) = (  0.0000000  1.0000000  0.0000000 )
                  (  1.0000000  0.0000000  0.0000000 )
                  (  0.0000000  0.0000000  1.0000000 )


      isym = 31     inv.  90 deg rotation - cart. axis [0,0,-1]  

 cryst.   s(31) = (     0          1          0      )
                  (    -1          0          0      )
                  (     0          0         -1      )

 cart.    s(31) = (  0.0000000 -1.0000000  0.0000000 )
                  (  1.0000000  0.0000000  0.0000000 )
                  (  0.0000000  0.0000000 -1.0000000 )


      isym = 32     inv.  90 deg rotation - cart. axis [0,0,1]   

 cryst.   s(32) = (     0         -1          0      )
                  (     1          0          0      )
                  (     0          0         -1      )

 cart.    s(32) = (  0.0000000  1.0000000  0.0000000 )
                  ( -1.0000000  0.0000000  0.0000000 )
                  (  0.0000000  0.0000000 -1.0000000 )


      isym = 33     inv. 180 deg rotation - cart. axis [1,0,1]   

 cryst.   s(33) = (     0          0         -1      )
                  (     0          1          0      )
                  (    -1          0          0      )

 cart.    s(33) = (  0.0000000  0.0000000 -1.0000000 )
                  (  0.0000000  1.0000000  0.0000000 )
                  ( -1.0000000  0.0000000  0.0000000 )


      isym = 34     inv. 180 deg rotation - cart. axis [-1,0,1]  

 cryst.   s(34) = (     0          0          1      )
                  (     0          1          0      )
                  (     1          0          0      )

 cart.    s(34) = (  0.0000000  0.0000000  1.0000000 )
                  (  0.0000000  1.0000000  0.0000000 )
                  (  1.0000000  0.0000000  0.0000000 )


      isym = 35     inv.  90 deg rotation - cart. axis [0,1,0]   

 cryst.   s(35) = (     0          0          1      )
                  (     0         -1          0      )
                  (    -1          0          0      )

 cart.    s(35) = (  0.0000000  0.0000000 -1.0000000 )
                  (  0.0000000 -1.0000000  0.0000000 )
                  (  1.0000000  0.0000000  0.0000000 )


      isym = 36     inv.  90 deg rotation - cart. axis [0,-1,0]  

 cryst.   s(36) = (     0          0         -1      )
                  (     0         -1          0      )
                  (     1          0          0      )

 cart.    s(36) = (  0.0000000  0.0000000  1.0000000 )
                  (  0.0000000 -1.0000000  0.0000000 )
                  ( -1.0000000  0.0000000  0.0000000 )


      isym = 37     inv. 180 deg rotation - cart. axis [0,1,1]   

 cryst.   s(37) = (     1          0          0      )
                  (     0          0         -1      )
                  (     0         -1          0      )

 cart.    s(37) = (  1.0000000  0.0000000  0.0000000 )
                  (  0.0000000  0.0000000 -1.0000000 )
                  (  0.0000000 -1.0000000  0.0000000 )


      isym = 38     inv. 180 deg rotation - cart. axis [0,1,-1]  

 cryst.   s(38) = (     1          0          0      )
                  (     0          0          1      )
                  (     0          1          0      )

 cart.    s(38) = (  1.0000000  0.0000000  0.0000000 )
                  (  0.0000000  0.0000000  1.0000000 )
                  (  0.0000000  1.0000000  0.0000000 )


      isym = 39     inv.  90 deg rotation - cart. axis [-1,0,0]  

 cryst.   s(39) = (    -1          0          0      )
                  (     0          0          1      )
                  (     0         -1          0      )

 cart.    s(39) = ( -1.0000000  0.0000000  0.0000000 )
                  (  0.0000000  0.0000000 -1.0000000 )
                  (  0.0000000  1.0000000  0.0000000 )


      isym = 40     inv.  90 deg rotation - cart. axis [1,0,0]   

 cryst.   s(40) = (    -1          0          0      )
                  (     0          0         -1      )
                  (     0          1          0      )

 cart.    s(40) = ( -1.0000000  0.0000000  0.0000000 )
                  (  0.0000000  0.0000000  1.0000000 )
                  (  0.0000000 -1.0000000  0.0000000 )


      isym = 41     inv. 120 deg rotation - cart. axis [-1,-1,-1]

 cryst.   s(41) = (     0          0         -1      )
                  (    -1          0          0      )
                  (     0         -1          0      )

 cart.    s(41) = (  0.0000000 -1.0000000  0.0000000 )
                  (  0.0000000  0.0000000 -1.0000000 )
                  ( -1.0000000  0.0000000  0.0000000 )


      isym = 42     inv. 120 deg rotation - cart. axis [-1,1,1]  

 cryst.   s(42) = (     0          0          1      )
                  (     1          0          0      )
                  (     0         -1          0      )

 cart.    s(42) = (  0.0000000  1.0000000  0.0000000 )
                  (  0.0000000  0.0000000 -1.0000000 )
                  (  1.0000000  0.0000000  0.0000000 )


      isym = 43     inv. 120 deg rotation - cart. axis [1,1,-1]  

 cryst.   s(43) = (     0          0          1      )
                  (    -1          0          0      )
                  (     0          1          0      )

 cart.    s(43) = (  0.0000000 -1.0000000  0.0000000 )
                  (  0.0000000  0.0000000  1.0000000 )
                  (  1.0000000  0.0000000  0.0000000 )


      isym = 44     inv. 120 deg rotation - cart. axis [1,-1,1]  

 cryst.   s(44) = (     0          0         -1      )
                  (     1          0          0      )
                  (     0          1          0      )

 cart.    s(44) = (  0.0000000  1.0000000  0.0000000 )
                  (  0.0000000  0.0000000  1.0000000 )
                  ( -1.0000000  0.0000000  0.0000000 )


      isym = 45     inv. 120 deg rotation - cart. axis [1,1,1]   

 cryst.   s(45) = (     0         -1          0      )
                  (     0          0         -1      )
                  (    -1          0          0      )

 cart.    s(45) = (  0.0000000  0.0000000 -1.0000000 )
                  ( -1.0000000  0.0000000  0.0000000 )
                  (  0.0000000 -1.0000000  0.0000000 )


      isym = 46     inv. 120 deg rotation - cart. axis [-1,1,-1] 

 cryst.   s(46) = (     0          1          0      )
                  (     0          0          1      )
                  (    -1          0          0      )

 cart.    s(46) = (  0.0000000  0.0000000 -1.0000000 )
                  (  1.0000000  0.0000000  0.0000000 )
                  (  0.0000000  1.0000000  0.0000000 )


      isym = 47     inv. 120 deg rotation - cart. axis [1,-1,-1] 

 cryst.   s(47) = (     0          1          0      )
                  (     0          0         -1      )
                  (     1          0          0      )

 cart.    s(47) = (  0.0000000  0.0000000  1.0000000 )
                  (  1.0000000  0.0000000  0.0000000 )
                  (  0.0000000 -1.0000000  0.0000000 )


      isym = 48     inv. 120 deg rotation - cart. axis [-1,-1,1] 

 cryst.   s(48) = (     0         -1          0      )
                  (     0          0          1      )
                  (     1          0          0      )

 cart.    s(48) = (  0.0000000  0.0000000  1.0000000 )
                  ( -1.0000000  0.0000000  0.0000000 )
                  (  0.0000000  1.0000000  0.0000000 )


     point group O_h (m-3m) 
     there are 10 classes
     the character table:

       E     8C3   6C2'  6C4   3C2   i     6S4   8S6   3s_h  6s_d 
A_1g   1.00  1.00  1.00  1.00  1.00  1.00  1.00  1.00  1.00  1.00
A_2g   1.00  1.00 -1.00 -1.00  1.00  1.00 -1.00  1.00  1.00 -1.00
E_g    2.00 -1.00  0.00  0.00  2.00  2.00  0.00 -1.00  2.00  0.00
T_1g   3.00  0.00 -1.00  1.00 -1.00  3.00  1.00  0.00 -1.00 -1.00
T_2g   3.00  0.00  1.00 -1.00 -1.00  3.00 -1.00  0.00 -1.00  1.00
A_1u   1.00  1.00  1.00  1.00  1.00 -1.00 -1.00 -1.00 -1.00 -1.00
A_2u   1.00  1.00 -1.00 -1.00  1.00 -1.00  1.00 -1.00 -1.00  1.00
E_u    2.00 -1.00  0.00  0.00  2.00 -2.00  0.00  1.00 -2.00  0.00
T_1u   3.00  0.00 -1.00  1.00 -1.00 -3.00 -1.00  0.00  1.00  1.00
T_2u   3.00  0.00  1.00 -1.00 -1.00 -3.00  1.00  0.00  1.00 -1.00

     the symmetry operations in each class:
     E        1
     3C2      2    4    3
     6C2'     5    6   14   13   10    9
     6C4      7    8   15   16   12   11
     8C3     17   19   20   18   24   21   22   23
     i       25
     3s_h    26   28   27
     6s_d    29   30   38   37   34   33
     6S4     31   32   39   40   36   35
     8S6     41   43   44   42   48   45   46   47

   Cartesian axes

     site n.     atom                  positions (alat units)
         1           Fe1 tau(   1) = (   0.0000000   0.0000000   0.0000000  )
         2           Fe  tau(   2) = (   0.5000000   0.5000000   0.5000000  )

   Crystallographic axes

     site n.     atom                  positions (cryst. coord.)
         1           Fe1 tau(   1) = (  0.0000000  0.0000000  0.0000000  )
         2           Fe  tau(   2) = (  0.5000000  0.5000000  0.5000000  )

     number of k points=    70  Methfessel-Paxton smearing, width (Ry)=  0.0100
                       cart. coord. in units 2pi/alat
        k(    1) = (   0.0000000   0.0000000   0.0000000), wk =   0.0019531
        k(    2) = (   0.0000000   0.0000000   0.1250000), wk =   0.0117188
        k(    3) = (   0.0000000   0.0000000   0.2500000), wk =   0.0117188
        k(    4) = (   0.0000000   0.0000000   0.3750000), wk =   0.0117188
        k(    5) = (   0.0000000   0.0000000  -0.5000000), wk =   0.0058594
        k(    6) = (   0.0000000   0.1250000   0.1250000), wk =   0.0234375
        k(    7) = (   0.0000000   0.1250000   0.2500000), wk =   0.0468750
        k(    8) = (   0.0000000   0.1250000   0.3750000), wk =   0.0468750
        k(    9) = (   0.0000000   0.1250000  -0.5000000), wk =   0.0234375
        k(   10) = (   0.0000000   0.2500000   0.2500000), wk =   0.0234375
        k(   11) = (   0.0000000   0.2500000   0.3750000), wk =   0.0468750
        k(   12) = (   0.0000000   0.2500000  -0.5000000), wk =   0.0234375
        k(   13) = (   0.0000000   0.3750000   0.3750000), wk =   0.0234375
        k(   14) = (   0.0000000   0.3750000  -0.5000000), wk =   0.0234375
        k(   15) = (   0.0000000  -0.5000000  -0.5000000), wk =   0.0058594
        k(   16) = (   0.1250000   0.1250000   0.1250000), wk =   0.0156250
        k(   17) = (   0.1250000   0.1250000   0.2500000), wk =   0.0468750
        k(   18) = (   0.1250000   0.1250000   0.3750000), wk =   0.0468750
        k(   19) = (   0.1250000   0.1250000  -0.5000000), wk =   0.0234375
        k(   20) = (   0.1250000   0.2500000   0.2500000), wk =   0.0468750
        k(   21) = (   0.1250000   0.2500000   0.3750000), wk =   0.0937500
        k(   22) = (   0.1250000   0.2500000  -0.5000000), wk =   0.0468750
        k(   23) = (   0.1250000   0.3750000   0.3750000), wk =   0.0468750
        k(   24) = (   0.1250000   0.3750000  -0.5000000), wk =   0.0468750
        k(   25) = (   0.1250000  -0.5000000  -0.5000000), wk =   0.0117188
        k(   26) = (   0.2500000   0.2500000   0.2500000), wk =   0.0156250
        k(   27) = (   0.2500000   0.2500000   0.3750000), wk =   0.0468750
        k(   28) = (   0.2500000   0.2500000  -0.5000000), wk =   0.0234375
        k(   29) = (   0.2500000   0.3750000   0.3750000), wk =   0.0468750
        k(   30) = (   0.2500000   0.3750000  -0.5000000), wk =   0.0468750
        k(   31) = (   0.2500000  -0.5000000  -0.5000000), wk =   0.0117188
        k(   32) = (   0.3750000   0.3750000   0.3750000), wk =   0.0156250
        k(   33) = (   0.3750000   0.3750000  -0.5000000), wk =   0.0234375
        k(   34) = (   0.3750000  -0.5000000  -0.5000000), wk =   0.0117188
        k(   35) = (  -0.5000000  -0.5000000  -0.5000000), wk =   0.0019531
        k(   36) = (   0.0000000   0.0000000   0.0000000), wk =   0.0019531
        k(   37) = (   0.0000000   0.0000000   0.1250000), wk =   0.0117188
        k(   38) = (   0.0000000   0.0000000   0.2500000), wk =   0.0117188
        k(   39) = (   0.0000000   0.0000000   0.3750000), wk =   0.0117188
        k(   40) = (   0.0000000   0.0000000  -0.5000000), wk =   0.0058594
        k(   41) = (   0.0000000   0.1250000   0.1250000), wk =   0.0234375
        k(   42) = (   0.0000000   0.1250000   0.2500000), wk =   0.0468750
        k(   43) = (   0.0000000   0.1250000   0.3750000), wk =   0.0468750
        k(   44) = (   0.0000000   0.1250000  -0.5000000), wk =   0.0234375
        k(   45) = (   0.0000000   0.2500000   0.2500000), wk =   0.0234375
        k(   46) = (   0.0000000   0.2500000   0.3750000), wk =   0.0468750
        k(   47) = (   0.0000000   0.2500000  -0.5000000), wk =   0.0234375
        k(   48) = (   0.0000000   0.3750000   0.3750000), wk =   0.0234375
        k(   49) = (   0.0000000   0.3750000  -0.5000000), wk =   0.0234375
        k(   50) = (   0.0000000  -0.5000000  -0.5000000), wk =   0.0058594
        k(   51) = (   0.1250000   0.1250000   0.1250000), wk =   0.0156250
        k(   52) = (   0.1250000   0.1250000   0.2500000), wk =   0.0468750
        k(   53) = (   0.1250000   0.1250000   0.3750000), wk =   0.0468750
        k(   54) = (   0.1250000   0.1250000  -0.5000000), wk =   0.0234375
        k(   55) = (   0.1250000   0.2500000   0.2500000), wk =   0.0468750
        k(   56) = (   0.1250000   0.2500000   0.3750000), wk =   0.0937500
        k(   57) = (   0.1250000   0.2500000  -0.5000000), wk =   0.0468750
        k(   58) = (   0.1250000   0.3750000   0.3750000), wk =   0.0468750
        k(   59) = (   0.1250000   0.3750000  -0.5000000), wk =   0.0468750
        k(   60) = (   0.1250000  -0.5000000  -0.5000000), wk =   0.0117188
        k(   61) = (   0.2500000   0.2500000   0.2500000), wk =   0.0156250
        k(   62) = (   0.2500000   0.2500000   0.3750000), wk =   0.0468750
        k(   63) = (   0.2500000   0.2500000  -0.5000000), wk =   0.0234375
        k(   64) = (   0.2500000   0.3750000   0.3750000), wk =   0.0468750
        k(   65) = (   0.2500000   0.3750000  -0.5000000), wk =   0.0468750
        k(   66) = (   0.2500000  -0.5000000  -0.5000000), wk =   0.0117188
        k(   67) = (   0.3750000   0.3750000   0.3750000), wk =   0.0156250
        k(   68) = (   0.3750000   0.3750000  -0.5000000), wk =   0.0234375
        k(   69) = (   0.3750000  -0.5000000  -0.5000000), wk =   0.0117188
        k(   70) = (  -0.5000000  -0.5000000  -0.5000000), wk =   0.0019531

                       cryst. coord.
        k(    1) = (   0.0000000   0.0000000   0.0000000), wk =   0.0019531
        k(    2) = (   0.0000000   0.0000000   0.1250000), wk =   0.0117188
        k(    3) = (   0.0000000   0.0000000   0.2500000), wk =   0.0117188
        k(    4) = (   0.0000000   0.0000000   0.3750000), wk =   0.0117188
        k(    5) = (   0.0000000   0.0000000  -0.5000000), wk =   0.0058594
        k(    6) = (   0.0000000   0.1250000   0.1250000), wk =   0.0234375
        k(    7) = (   0.0000000   0.1250000   0.2500000), wk =   0.0468750
        k(    8) = (   0.0000000   0.1250000   0.3750000), wk =   0.0468750
        k(    9) = (   0.0000000   0.1250000  -0.5000000), wk =   0.0234375
        k(   10) = (   0.0000000   0.2500000   0.2500000), wk =   0.0234375
        k(   11) = (   0.0000000   0.2500000   0.3750000), wk =   0.0468750
        k(   12) = (   0.0000000   0.2500000  -0.5000000), wk =   0.0234375
        k(   13) = (   0.0000000   0.3750000   0.3750000), wk =   0.0234375
        k(   14) = (   0.0000000   0.3750000  -0.5000000), wk =   0.0234375
        k(   15) = (   0.0000000  -0.5000000  -0.5000000), wk =   0.0058594
        k(   16) = (   0.1250000   0.1250000   0.1250000), wk =   0.0156250
        k(   17) = (   0.1250000   0.1250000   0.2500000), wk =   0.0468750
        k(   18) = (   0.1250000   0.1250000   0.3750000), wk =   0.0468750
        k(   19) = (   0.1250000   0.1250000  -0.5000000), wk =   0.0234375
        k(   20) = (   0.1250000   0.2500000   0.2500000), wk =   0.0468750
        k(   21) = (   0.1250000   0.2500000   0.3750000), wk =   0.0937500
        k(   22) = (   0.1250000   0.2500000  -0.5000000), wk =   0.0468750
        k(   23) = (   0.1250000   0.3750000   0.3750000), wk =   0.0468750
        k(   24) = (   0.1250000   0.3750000  -0.5000000), wk =   0.0468750
        k(   25) = (   0.1250000  -0.5000000  -0.5000000), wk =   0.0117188
        k(   26) = (   0.2500000   0.2500000   0.2500000), wk =   0.0156250
        k(   27) = (   0.2500000   0.2500000   0.3750000), wk =   0.0468750
        k(   28) = (   0.2500000   0.2500000  -0.5000000), wk =   0.0234375
        k(   29) = (   0.2500000   0.3750000   0.3750000), wk =   0.0468750
        k(   30) = (   0.2500000   0.3750000  -0.5000000), wk =   0.0468750
        k(   31) = (   0.2500000  -0.5000000  -0.5000000), wk =   0.0117188
        k(   32) = (   0.3750000   0.3750000   0.3750000), wk =   0.0156250
        k(   33) = (   0.3750000   0.3750000  -0.5000000), wk =   0.0234375
        k(   34) = (   0.3750000  -0.5000000  -0.5000000), wk =   0.0117188
        k(   35) = (  -0.5000000  -0.5000000  -0.5000000), wk =   0.0019531
        k(   36) = (   0.0000000   0.0000000   0.0000000), wk =   0.0019531
        k(   37) = (   0.0000000   0.0000000   0.1250000), wk =   0.0117188
        k(   38) = (   0.0000000   0.0000000   0.2500000), wk =   0.0117188
        k(   39) = (   0.0000000   0.0000000   0.3750000), wk =   0.0117188
        k(   40) = (   0.0000000   0.0000000  -0.5000000), wk =   0.0058594
        k(   41) = (   0.0000000   0.1250000   0.1250000), wk =   0.0234375
        k(   42) = (   0.0000000   0.1250000   0.2500000), wk =   0.0468750
        k(   43) = (   0.0000000   0.1250000   0.3750000), wk =   0.0468750
        k(   44) = (   0.0000000   0.1250000  -0.5000000), wk =   0.0234375
        k(   45) = (   0.0000000   0.2500000   0.2500000), wk =   0.0234375
        k(   46) = (   0.0000000   0.2500000   0.3750000), wk =   0.0468750
        k(   47) = (   0.0000000   0.2500000  -0.5000000), wk =   0.0234375
        k(   48) = (   0.0000000   0.3750000   0.3750000), wk =   0.0234375
        k(   49) = (   0.0000000   0.3750000  -0.5000000), wk =   0.0234375
        k(   50) = (   0.0000000  -0.5000000  -0.5000000), wk =   0.0058594
        k(   51) = (   0.1250000   0.1250000   0.1250000), wk =   0.0156250
        k(   52) = (   0.1250000   0.1250000   0.2500000), wk =   0.0468750
        k(   53) = (   0.1250000   0.1250000   0.3750000), wk =   0.0468750
        k(   54) = (   0.1250000   0.1250000  -0.5000000), wk =   0.0234375
        k(   55) = (   0.1250000   0.2500000   0.2500000), wk =   0.0468750
        k(   56) = (   0.1250000   0.2500000   0.3750000), wk =   0.0937500
        k(   57) = (   0.1250000   0.2500000  -0.5000000), wk =   0.0468750
        k(   58) = (   0.1250000   0.3750000   0.3750000), wk =   0.0468750
        k(   59) = (   0.1250000   0.3750000  -0.5000000), wk =   0.0468750
        k(   60) = (   0.1250000  -0.5000000  -0.5000000), wk =   0.0117188
        k(   61) = (   0.2500000   0.2500000   0.2500000), wk =   0.0156250
        k(   62) = (   0.2500000   0.2500000   0.3750000), wk =   0.0468750
        k(   63) = (   0.2500000   0.2500000  -0.5000000), wk =   0.0234375
        k(   64) = (   0.2500000   0.3750000   0.3750000), wk =   0.0468750
        k(   65) = (   0.2500000   0.3750000  -0.5000000), wk =   0.0468750
        k(   66) = (   0.2500000  -0.5000000  -0.5000000), wk =   0.0117188
        k(   67) = (   0.3750000   0.3750000   0.3750000), wk =   0.0156250
        k(   68) = (   0.3750000   0.3750000  -0.5000000), wk =   0.0234375
        k(   69) = (   0.3750000  -0.5000000  -0.5000000), wk =   0.0117188
        k(   70) = (  -0.5000000  -0.5000000  -0.5000000), wk =   0.0019531

     Dense  grid:    18325 G-vectors     FFT dimensions: (  36,  36,  36)

     Smooth grid:     3575 G-vectors     FFT dimensions: (  20,  20,  20)

     Largest allocated arrays     est. size (Mb)     dimensions
        Kohn-Sham Wavefunctions         0.03 Mb     (     118,   14)
        Atomic Hubbard wavefuncts       0.02 Mb     (     118,   10)
        NL pseudopotentials             0.06 Mb     (     118,   36)
        Each V/rho on FFT grid          0.36 Mb     (   11664,   2)
        Each G-vector array             0.03 Mb     (    4581)
        G-vector shells                 0.00 Mb     (     222)
     Largest temporary arrays     est. size (Mb)     dimensions
        Auxiliary wavefunctions         0.10 Mb     (     118,   56)
        Each subspace H/S matrix        0.05 Mb     (      56,   56)
        Each <psi_i|beta_j> matrix      0.01 Mb     (      36,   14)
        Arrays for rho mixing           1.42 Mb     (   11664,    8)

     Initial potential from superposition of free atoms

     starting charge   15.99873, renormalised to   16.00000
 --- in v_hubbard ---
Hubbard energy    0.0000
 -------
     Number of +U iterations with fixed ns =  0
     Starting occupations:
 --- enter write_ns ---
 LDA+U parameters:
U( 1)     =  0.00000000
alpha( 1) =  0.00000000
U( 2)     =  0.00000000
alpha( 2) =  0.00000000
atom    1   Tr[ns(na)] (up, down, total) =   5.00000  1.00000  6.00000
   spin  1
    eigenvalues: 
  1.000  1.000  1.000  1.000  1.000
    eigenvectors:
  1.000  0.000  0.000  0.000  0.000
  0.000  1.000  0.000  0.000  0.000
  0.000  0.000  1.000  0.000  0.000
  0.000  0.000  0.000  1.000  0.000
  0.000  0.000  0.000  0.000  1.000
    occupations:
  1.000  0.000  0.000  0.000  0.000
  0.000  1.000  0.000  0.000  0.000
  0.000  0.000  1.000  0.000  0.000
  0.000  0.000  0.000  1.000  0.000
  0.000  0.000  0.000  0.000  1.000
   spin  2
    eigenvalues: 
  0.200  0.200  0.200  0.200  0.200
    eigenvectors:
  1.000  0.000  0.000  0.000  0.000
  0.000  1.000  0.000  0.000  0.000
  0.000  0.000  1.000  0.000  0.000
  0.000  0.000  0.000  1.000  0.000
  0.000  0.000  0.000  0.000  1.000
    occupations:
  0.200  0.000  0.000  0.000  0.000
  0.000  0.200  0.000  0.000  0.000
  0.000  0.000  0.200  0.000  0.000
  0.000  0.000  0.000  0.200  0.000
  0.000  0.000  0.000  0.000  0.200
atomic mag. moment =     4.000000
atom    2   Tr[ns(na)] (up, down, total) =   5.00000  1.00000  6.00000
   spin  1
    eigenvalues: 
  1.000  1.000  1.000  1.000  1.000
    eigenvectors:
  1.000  0.000  0.000  0.000  0.000
  0.000  1.000  0.000  0.000  0.000
  0.000  0.000  1.000  0.000  0.000
  0.000  0.000  0.000  1.000  0.000
  0.000  0.000  0.000  0.000  1.000
    occupations:
  1.000  0.000  0.000  0.000  0.000
  0.000  1.000  0.000  0.000  0.000
  0.000  0.000  1.000  0.000  0.000
  0.000  0.000  0.000  1.000  0.000
  0.000  0.000  0.000  0.000  1.000
   spin  2
    eigenvalues: 
  0.200  0.200  0.200  0.200  0.200
    eigenvectors:
  1.000  0.000  0.000  0.000  0.000
  0.000  1.000  0.000  0.000  0.000
  0.000  0.000  1.000  0.000  0.000
  0.000  0.000  0.000  1.000  0.000
  0.000  0.000  0.000  0.000  1.000
    occupations:
  0.200  0.000  0.000  0.000  0.000
  0.000  0.200  0.000  0.000  0.000
  0.000  0.000  0.200  0.000  0.000
  0.000  0.000  0.000  0.200  0.000
  0.000  0.000  0.000  0.000  0.200
atomic mag. moment =     4.000000
N of occupied +U levels =   12.000000
 --- exit write_ns ---
 Atomic wfc used for LDA+U Projector are NOT orthogonalized
     Starting wfc are   12 randomized atomic wfcs +    2 random wfc

     total cpu time spent up to now is        0.7 secs

     per-process dynamical memory:    11.1 Mb

     Self-consistent Calculation

     iteration #  1     ecut=    30.00 Ry     beta=0.70
     Davidson diagonalization with overlap
     ethr =  1.00E-02,  avg # of iterations =  3.7
 --- enter write_ns ---
 LDA+U parameters:
U( 1)     =  0.00000000
alpha( 1) =  0.00000000
U( 2)     =  0.00000000
alpha( 2) =  0.00000000
atom    1   Tr[ns(na)] (up, down, total) =   4.84928  2.31163  7.16091
   spin  1
    eigenvalues: 
  0.963  0.963  0.963  0.980  0.980
    eigenvectors:
  0.000  0.000  0.000  0.683  0.317
  0.062  0.299  0.638  0.000  0.000
  0.325  0.341  0.334  0.000  0.000
  0.000  0.000  0.000  0.317  0.683
  0.613  0.360  0.028  0.000  0.000
    occupations:
  0.980  0.000  0.000  0.000  0.000
  0.000  0.963  0.000  0.000  0.000
  0.000  0.000  0.963  0.000  0.000
  0.000  0.000  0.000  0.980  0.000
  0.000  0.000  0.000  0.000  0.963
   spin  2
    eigenvalues: 
  0.436  0.436  0.480  0.480  0.480
    eigenvectors:
  0.672  0.328  0.000  0.000  0.000
  0.000  0.000  0.068  0.356  0.576
  0.000  0.000  0.358  0.268  0.375
  0.328  0.672  0.000  0.000  0.000
  0.000  0.000  0.574  0.377  0.049
    occupations:
  0.436  0.000  0.000  0.000  0.000
  0.000  0.480  0.000  0.000  0.000
  0.000  0.000  0.480  0.000  0.000
  0.000  0.000  0.000  0.436  0.000
  0.000  0.000  0.000  0.000  0.480
atomic mag. moment =     2.537654
atom    2   Tr[ns(na)] (up, down, total) =   4.84933  2.31162  7.16095
   spin  1
    eigenvalues: 
  0.963  0.963  0.963  0.980  0.980
    eigenvectors:
  0.000  0.000  0.000  0.357  0.643
  0.074  0.362  0.564  0.000  0.000
  0.364  0.252  0.384  0.000  0.000
  0.000  0.000  0.000  0.643  0.357
  0.562  0.386  0.052  0.000  0.000
    occupations:
  0.980  0.000  0.000  0.000  0.000
  0.000  0.963  0.000  0.000  0.000
  0.000  0.000  0.963  0.000  0.000
  0.000  0.000  0.000  0.980  0.000
  0.000  0.000  0.000  0.000  0.963
   spin  2
    eigenvalues: 
  0.436  0.436  0.480  0.480  0.480
    eigenvectors:
  0.735  0.265  0.000  0.000  0.000
  0.000  0.000  0.069  0.402  0.529
  0.000  0.000  0.340  0.246  0.413
  0.265  0.735  0.000  0.000  0.000
  0.000  0.000  0.591  0.351  0.058
    occupations:
  0.436  0.000  0.000  0.000  0.000
  0.000  0.480  0.000  0.000  0.000
  0.000  0.000  0.480  0.000  0.000
  0.000  0.000  0.000  0.436  0.000
  0.000  0.000  0.000  0.000  0.480
atomic mag. moment =     2.537714
N of occupied +U levels =   14.321861
 --- exit write_ns ---
 --- in v_hubbard ---
Hubbard energy    0.0000
 -------
 
     Magnetic moment per site:
     atom:    1    charge:    6.3459    magn:    3.1632    constr:    0.0000
     atom:    2    charge:    6.3460    magn:    3.1632    constr:    0.0000

     total cpu time spent up to now is        1.7 secs

     total energy              =    -111.29446231 Ry
     Harris-Foulkes estimate   =    -111.60276211 Ry
     estimated scf accuracy    <       0.64950063 Ry

     total magnetization       =     5.83 Bohr mag/cell
     absolute magnetization    =     5.83 Bohr mag/cell

     iteration #  2     ecut=    30.00 Ry     beta=0.70
     Davidson diagonalization with overlap
     ethr =  4.06E-03,  avg # of iterations =  2.4
 --- enter write_ns ---
 LDA+U parameters:
U( 1)     =  0.00000000
alpha( 1) =  0.00000000
U( 2)     =  0.00000000
alpha( 2) =  0.00000000
atom    1   Tr[ns(na)] (up, down, total) =   4.97647  2.77094  7.74741
   spin  1
    eigenvalues: 
  0.994  0.994  0.994  0.997  0.997
    eigenvectors:
  0.000  0.000  0.000  0.693  0.307
  0.071  0.386  0.542  0.000  0.000
  0.346  0.250  0.404  0.000  0.000
  0.000  0.000  0.000  0.307  0.693
  0.583  0.364  0.054  0.000  0.000
    occupations:
  0.997  0.000  0.000  0.000  0.000
  0.000  0.994  0.000  0.000  0.000
  0.000  0.000  0.994  0.000  0.000
  0.000  0.000  0.000  0.997  0.000
  0.000  0.000  0.000  0.000  0.994
   spin  2
    eigenvalues: 
  0.473  0.473  0.609  0.609  0.609
    eigenvectors:
  0.698  0.302  0.000  0.000  0.000
  0.000  0.000  0.070  0.435  0.495
  0.000  0.000  0.347  0.218  0.435
  0.302  0.698  0.000  0.000  0.000
  0.000  0.000  0.583  0.347  0.070
    occupations:
  0.473  0.000  0.000  0.000  0.000
  0.000  0.609  0.000  0.000  0.000
  0.000  0.000  0.609  0.000  0.000
  0.000  0.000  0.000  0.473  0.000
  0.000  0.000  0.000  0.000  0.609
atomic mag. moment =     2.205530
atom    2   Tr[ns(na)] (up, down, total) =   4.97646  2.76999  7.74645
   spin  1
    eigenvalues: 
  0.994  0.994  0.994  0.997  0.997
    eigenvectors:
  0.000  0.000  0.000  0.575  0.425
  0.078  0.569  0.353  0.000  0.000
  0.343  0.127  0.530  0.000  0.000
  0.000  0.000  0.000  0.425  0.575
  0.579  0.304  0.117  0.000  0.000
    occupations:
  0.997  0.000  0.000  0.000  0.000
  0.000  0.994  0.000  0.000  0.000
  0.000  0.000  0.994  0.000  0.000
  0.000  0.000  0.000  0.997  0.000
  0.000  0.000  0.000  0.000  0.994
   spin  2
    eigenvalues: 
  0.472  0.472  0.608  0.608  0.608
    eigenvectors:
  0.636  0.364  0.000  0.000  0.000
  0.000  0.000  0.072  0.460  0.469
  0.000  0.000  0.339  0.204  0.456
  0.364  0.636  0.000  0.000  0.000
  0.000  0.000  0.589  0.336  0.075
    occupations:
  0.472  0.000  0.000  0.000  0.000
  0.000  0.608  0.000  0.000  0.000
  0.000  0.000  0.608  0.000  0.000
  0.000  0.000  0.000  0.472  0.000
  0.000  0.000  0.000  0.000  0.608
atomic mag. moment =     2.206471
N of occupied +U levels =   15.493867
 --- exit write_ns ---
 --- in v_hubbard ---
Hubbard energy    0.0000
 -------
 
     Magnetic moment per site:
     atom:    1    charge:    6.5116    magn:    2.9615    constr:    0.0000
     atom:    2    charge:    6.5114    magn:    2.9618    constr:    0.0000

     total cpu time spent up to now is        2.4 secs

     total energy              =    -111.45109744 Ry
     Harris-Foulkes estimate   =    -111.76267862 Ry
     estimated scf accuracy    <       0.68123069 Ry

     total magnetization       =     5.15 Bohr mag/cell
     absolute magnetization    =     5.25 Bohr mag/cell

     iteration #  3     ecut=    30.00 Ry     beta=0.70
     Davidson diagonalization with overlap
     ethr =  4.06E-03,  avg # of iterations =  1.9
 --- enter write_ns ---
 LDA+U parameters:
U( 1)     =  0.00000000
alpha( 1) =  0.00000000
U( 2)     =  0.00000000
alpha( 2) =  0.00000000
atom    1   Tr[ns(na)] (up, down, total) =   4.90858  2.58132  7.48989
   spin  1
    eigenvalues: 
  0.978  0.978  0.978  0.988  0.988
    eigenvectors:
  0.000  0.000  0.000  0.610  0.390
  0.068  0.420  0.512  0.000  0.000
  0.331  0.241  0.428  0.000  0.000
  0.000  0.000  0.000  0.390  0.610
  0.601  0.339  0.060  0.000  0.000
    occupations:
  0.988  0.000  0.000  0.000  0.000
  0.000  0.978  0.000  0.000  0.000
  0.000  0.000  0.978  0.000  0.000
  0.000  0.000  0.000  0.988  0.000
  0.000  0.000  0.000  0.000  0.978
   spin  2
    eigenvalues: 
  0.449  0.449  0.561  0.561  0.561
    eigenvectors:
  0.469  0.531  0.000  0.000  0.000
  0.000  0.000  0.070  0.346  0.584
  0.000  0.000  0.359  0.271  0.370
  0.531  0.469  0.000  0.000  0.000
  0.000  0.000  0.570  0.384  0.046
    occupations:
  0.449  0.000  0.000  0.000  0.000
  0.000  0.561  0.000  0.000  0.000
  0.000  0.000  0.561  0.000  0.000
  0.000  0.000  0.000  0.449  0.000
  0.000  0.000  0.000  0.000  0.561
atomic mag. moment =     2.327256
atom    2   Tr[ns(na)] (up, down, total) =   4.90896  2.58441  7.49337
   spin  1
    eigenvalues: 
  0.978  0.978  0.978  0.988  0.988
    eigenvectors:
  0.000  0.000  0.000  0.579  0.421
  0.076  0.500  0.424  0.000  0.000
  0.339  0.173  0.488  0.000  0.000
  0.000  0.000  0.000  0.421  0.579
  0.584  0.328  0.088  0.000  0.000
    occupations:
  0.988  0.000  0.000  0.000  0.000
  0.000  0.978  0.000  0.000  0.000
  0.000  0.000  0.978  0.000  0.000
  0.000  0.000  0.000  0.988  0.000
  0.000  0.000  0.000  0.000  0.978
   spin  2
    eigenvalues: 
  0.449  0.449  0.562  0.562  0.562
    eigenvectors:
  0.593  0.407  0.000  0.000  0.000
  0.000  0.000  0.067  0.343  0.591
  0.000  0.000  0.324  0.303  0.373
  0.407  0.593  0.000  0.000  0.000
  0.000  0.000  0.609  0.354  0.037
    occupations:
  0.449  0.000  0.000  0.000  0.000
  0.000  0.562  0.000  0.000  0.000
  0.000  0.000  0.562  0.000  0.000
  0.000  0.000  0.000  0.449  0.000
  0.000  0.000  0.000  0.000  0.562
atomic mag. moment =     2.324552
N of occupied +U levels =   14.983265
 --- exit write_ns ---
 --- in v_hubbard ---
Hubbard energy    0.0000
 -------
 
     Magnetic moment per site:
     atom:    1    charge:    6.4854    magn:    2.5807    constr:    0.0000
     atom:    2    charge:    6.4893    magn:    2.5788    constr:    0.0000

     total cpu time spent up to now is        3.1 secs

     total energy              =    -111.59722758 Ry
     Harris-Foulkes estimate   =    -111.58602847 Ry
     estimated scf accuracy    <       0.00525809 Ry

     total magnetization       =     5.18 Bohr mag/cell
     absolute magnetization    =     5.36 Bohr mag/cell

     iteration #  4     ecut=    30.00 Ry     beta=0.70
     Davidson diagonalization with overlap
     ethr =  3.29E-05,  avg # of iterations =  3.2
 --- enter write_ns ---
 LDA+U parameters:
U( 1)     =  0.00000000
alpha( 1) =  0.00000000
U( 2)     =  0.00000000
alpha( 2) =  0.00000000
atom    1   Tr[ns(na)] (up, down, total) =   4.89931  2.65511  7.55442
   spin  1
    eigenvalues: 
  0.975  0.975  0.975  0.987  0.987
    eigenvectors:
  0.000  0.000  0.000  0.663  0.337
  0.076  0.527  0.397  0.000  0.000
  0.348  0.152  0.500  0.000  0.000
  0.000  0.000  0.000  0.337  0.663
  0.576  0.321  0.103  0.000  0.000
    occupations:
  0.987  0.000  0.000  0.000  0.000
  0.000  0.975  0.000  0.000  0.000
  0.000  0.000  0.975  0.000  0.000
  0.000  0.000  0.000  0.987  0.000
  0.000  0.000  0.000  0.000  0.975
   spin  2
    eigenvalues: 
  0.448  0.448  0.586  0.586  0.586
    eigenvectors:
  0.544  0.456  0.000  0.000  0.000
  0.000  0.000  0.072  0.386  0.542
  0.000  0.000  0.365  0.237  0.398
  0.456  0.544  0.000  0.000  0.000
  0.000  0.000  0.563  0.377  0.060
    occupations:
  0.448  0.000  0.000  0.000  0.000
  0.000  0.586  0.000  0.000  0.000
  0.000  0.000  0.586  0.000  0.000
  0.000  0.000  0.000  0.448  0.000
  0.000  0.000  0.000  0.000  0.586
atomic mag. moment =     2.244200
atom    2   Tr[ns(na)] (up, down, total) =   4.89461  2.60744  7.50206
   spin  1
    eigenvalues: 
  0.974  0.974  0.974  0.986  0.986
    eigenvectors:
  0.000  0.000  0.000  0.630  0.370
  0.076  0.512  0.413  0.000  0.000
  0.341  0.165  0.494  0.000  0.000
  0.000  0.000  0.000  0.370  0.630
  0.584  0.323  0.093  0.000  0.000
    occupations:
  0.986  0.000  0.000  0.000  0.000
  0.000  0.974  0.000  0.000  0.000
  0.000  0.000  0.974  0.000  0.000
  0.000  0.000  0.000  0.986  0.000
  0.000  0.000  0.000  0.000  0.974
   spin  2
    eigenvalues: 
  0.440  0.440  0.576  0.576  0.576
    eigenvectors:
  0.606  0.394  0.000  0.000  0.000
  0.000  0.000  0.073  0.416  0.511
  0.000  0.000  0.341  0.231  0.428
  0.394  0.606  0.000  0.000  0.000
  0.000  0.000  0.586  0.352  0.061
    occupations:
  0.440  0.000  0.000  0.000  0.000
  0.000  0.576  0.000  0.000  0.000
  0.000  0.000  0.576  0.000  0.000
  0.000  0.000  0.000  0.440  0.000
  0.000  0.000  0.000  0.000  0.576
atomic mag. moment =     2.287170
N of occupied +U levels =   15.056472
 --- exit write_ns ---
 --- in v_hubbard ---
Hubbard energy    0.0000
 -------
 
     Magnetic moment per site:
     atom:    1    charge:    6.4914    magn:    2.5573    constr:    0.0000
     atom:    2    charge:    6.4804    magn:    2.5639    constr:    0.0000

     total cpu time spent up to now is        4.0 secs

     total energy              =    -111.60318343 Ry
     Harris-Foulkes estimate   =    -111.60339274 Ry
     estimated scf accuracy    <       0.00096663 Ry

     total magnetization       =     4.94 Bohr mag/cell
     absolute magnetization    =     5.25 Bohr mag/cell

     iteration #  5     ecut=    30.00 Ry     beta=0.70
     Davidson diagonalization with overlap
     ethr =  6.04E-06,  avg # of iterations =  2.2
 --- enter write_ns ---
 LDA+U parameters:
U( 1)     =  0.00000000
alpha( 1) =  0.00000000
U( 2)     =  0.00000000
alpha( 2) =  0.00000000
atom    1   Tr[ns(na)] (up, down, total) =   4.88690  2.56859  7.45549
   spin  1
    eigenvalues: 
  0.972  0.972  0.972  0.986  0.986
    eigenvectors:
  0.000  0.000  0.000  0.650  0.350
  0.069  0.374  0.557  0.000  0.000
  0.339  0.267  0.394  0.000  0.000
  0.000  0.000  0.000  0.350  0.650
  0.592  0.360  0.049  0.000  0.000
    occupations:
  0.986  0.000  0.000  0.000  0.000
  0.000  0.972  0.000  0.000  0.000
  0.000  0.000  0.972  0.000  0.000
  0.000  0.000  0.000  0.986  0.000
  0.000  0.000  0.000  0.000  0.972
   spin  2
    eigenvalues: 
  0.432  0.432  0.568  0.568  0.568
    eigenvectors:
  0.678  0.322  0.000  0.000  0.000
  0.000  0.000  0.072  0.579  0.349
  0.000  0.000  0.344  0.128  0.528
  0.322  0.678  0.000  0.000  0.000
  0.000  0.000  0.584  0.294  0.123
    occupations:
  0.432  0.000  0.000  0.000  0.000
  0.000  0.568  0.000  0.000  0.000
  0.000  0.000  0.568  0.000  0.000
  0.000  0.000  0.000  0.432  0.000
  0.000  0.000  0.000  0.000  0.568
atomic mag. moment =     2.318308
atom    2   Tr[ns(na)] (up, down, total) =   4.90015  2.70063  7.60079
   spin  1
    eigenvalues: 
  0.975  0.975  0.975  0.988  0.988
    eigenvectors:
  0.000  0.000  0.000  0.605  0.395
  0.068  0.392  0.540  0.000  0.000
  0.333  0.259  0.408  0.000  0.000
  0.000  0.000  0.000  0.395  0.605
  0.599  0.349  0.052  0.000  0.000
    occupations:
  0.988  0.000  0.000  0.000  0.000
  0.000  0.975  0.000  0.000  0.000
  0.000  0.000  0.975  0.000  0.000
  0.000  0.000  0.000  0.988  0.000
  0.000  0.000  0.000  0.000  0.975
   spin  2
    eigenvalues: 
  0.455  0.455  0.597  0.597  0.597
    eigenvectors:
  0.578  0.422  0.000  0.000  0.000
  0.000  0.000  0.073  0.512  0.415
  0.000  0.000  0.336  0.171  0.493
  0.422  0.578  0.000  0.000  0.000
  0.000  0.000  0.591  0.317  0.092
    occupations:
  0.455  0.000  0.000  0.000  0.000
  0.000  0.597  0.000  0.000  0.000
  0.000  0.000  0.597  0.000  0.000
  0.000  0.000  0.000  0.455  0.000
  0.000  0.000  0.000  0.000  0.597
atomic mag. moment =     2.199521
N of occupied +U levels =   15.056274
 --- exit write_ns ---
 --- in v_hubbard ---
Hubbard energy    0.0000
 -------
 
     Magnetic moment per site:
     atom:    1    charge:    6.4831    magn:    2.5238    constr:    0.0000
     atom:    2    charge:    6.4830    magn:    2.5237    constr:    0.0000

     total cpu time spent up to now is        4.7 secs

     total energy              =    -111.60320737 Ry
     Harris-Foulkes estimate   =    -111.60390530 Ry
     estimated scf accuracy    <       0.00650611 Ry

     total magnetization       =     4.92 Bohr mag/cell
     absolute magnetization    =     5.24 Bohr mag/cell

     iteration #  6     ecut=    30.00 Ry     beta=0.70
     Davidson diagonalization with overlap
     ethr =  6.04E-06,  avg # of iterations =  1.0
 --- enter write_ns ---
 LDA+U parameters:
U( 1)     =  0.00000000
alpha( 1) =  0.00000000
U( 2)     =  0.00000000
alpha( 2) =  0.00000000
atom    1   Tr[ns(na)] (up, down, total) =   4.88782  2.64215  7.52998
   spin  1
    eigenvalues: 
  0.971  0.971  0.971  0.987  0.987
    eigenvectors:
  0.000  0.000  0.000  0.554  0.446
  0.072  0.524  0.403  0.000  0.000
  0.343  0.160  0.496  0.000  0.000
  0.000  0.000  0.000  0.446  0.554
  0.585  0.315  0.100  0.000  0.000
    occupations:
  0.987  0.000  0.000  0.000  0.000
  0.000  0.971  0.000  0.000  0.000
  0.000  0.000  0.971  0.000  0.000
  0.000  0.000  0.000  0.987  0.000
  0.000  0.000  0.000  0.000  0.971
   spin  2
    eigenvalues: 
  0.443  0.443  0.585  0.585  0.585
    eigenvectors:
  0.609  0.391  0.000  0.000  0.000
  0.000  0.000  0.070  0.367  0.563
  0.000  0.000  0.338  0.271  0.391
  0.391  0.609  0.000  0.000  0.000
  0.000  0.000  0.592  0.362  0.046
    occupations:
  0.443  0.000  0.000  0.000  0.000
  0.000  0.585  0.000  0.000  0.000
  0.000  0.000  0.585  0.000  0.000
  0.000  0.000  0.000  0.443  0.000
  0.000  0.000  0.000  0.000  0.585
atomic mag. moment =     2.245669
atom    2   Tr[ns(na)] (up, down, total) =   4.88775  2.64144  7.52919
   spin  1
    eigenvalues: 
  0.971  0.971  0.971  0.987  0.987
    eigenvectors:
  0.000  0.000  0.000  0.448  0.552
  0.075  0.490  0.435  0.000  0.000
  0.351  0.174  0.475  0.000  0.000
  0.000  0.000  0.000  0.552  0.448
  0.573  0.336  0.090  0.000  0.000
    occupations:
  0.987  0.000  0.000  0.000  0.000
  0.000  0.971  0.000  0.000  0.000
  0.000  0.000  0.971  0.000  0.000
  0.000  0.000  0.000  0.987  0.000
  0.000  0.000  0.000  0.000  0.971
   spin  2
    eigenvalues: 
  0.443  0.443  0.585  0.585  0.585
    eigenvectors:
  0.498  0.502  0.000  0.000  0.000
  0.000  0.000  0.073  0.534  0.392
  0.000  0.000  0.334  0.157  0.509
  0.502  0.498  0.000  0.000  0.000
  0.000  0.000  0.592  0.308  0.099
    occupations:
  0.443  0.000  0.000  0.000  0.000
  0.000  0.585  0.000  0.000  0.000
  0.000  0.000  0.585  0.000  0.000
  0.000  0.000  0.000  0.443  0.000
  0.000  0.000  0.000  0.000  0.585
atomic mag. moment =     2.246306
N of occupied +U levels =   15.059168
 --- exit write_ns ---
 --- in v_hubbard ---
Hubbard energy    0.0000
 -------
 
     Magnetic moment per site:
     atom:    1    charge:    6.4824    magn:    2.5137    constr:    0.0000
     atom:    2    charge:    6.4827    magn:    2.5143    constr:    0.0000

     total cpu time spent up to now is        5.3 secs

     total energy              =    -111.60364380 Ry
     Harris-Foulkes estimate   =    -111.60363038 Ry
     estimated scf accuracy    <       0.00001496 Ry

     total magnetization       =     4.88 Bohr mag/cell
     absolute magnetization    =     5.22 Bohr mag/cell

     iteration #  7     ecut=    30.00 Ry     beta=0.70
     Davidson diagonalization with overlap
     ethr =  9.35E-08,  avg # of iterations =  3.9
 --- enter write_ns ---
 LDA+U parameters:
U( 1)     =  0.00000000
alpha( 1) =  0.00000000
U( 2)     =  0.00000000
alpha( 2) =  0.00000000
atom    1   Tr[ns(na)] (up, down, total) =   4.88520  2.64605  7.53125
   spin  1
    eigenvalues: 
  0.970  0.970  0.970  0.987  0.987
    eigenvectors:
  0.000  0.000  0.000  0.576  0.424
  0.066  0.353  0.580  0.000  0.000
  0.332  0.290  0.378  0.000  0.000
  0.000  0.000  0.000  0.424  0.576
  0.602  0.357  0.041  0.000  0.000
    occupations:
  0.987  0.000  0.000  0.000  0.000
  0.000  0.970  0.000  0.000  0.000
  0.000  0.000  0.970  0.000  0.000
  0.000  0.000  0.000  0.987  0.000
  0.000  0.000  0.000  0.000  0.970
   spin  2
    eigenvalues: 
  0.442  0.442  0.587  0.587  0.587
    eigenvectors:
  0.660  0.340  0.000  0.000  0.000
  0.000  0.000  0.069  0.390  0.541
  0.000  0.000  0.326  0.264  0.410
  0.340  0.660  0.000  0.000  0.000
  0.000  0.000  0.605  0.346  0.049
    occupations:
  0.442  0.000  0.000  0.000  0.000
  0.000  0.587  0.000  0.000  0.000
  0.000  0.000  0.587  0.000  0.000
  0.000  0.000  0.000  0.442  0.000
  0.000  0.000  0.000  0.000  0.587
atomic mag. moment =     2.239158
atom    2   Tr[ns(na)] (up, down, total) =   4.88516  2.64493  7.53009
   spin  1
    eigenvalues: 
  0.970  0.970  0.970  0.987  0.987
    eigenvectors:
  0.000  0.000  0.000  0.589  0.411
  0.075  0.510  0.414  0.000  0.000
  0.346  0.164  0.490  0.000  0.000
  0.000  0.000  0.000  0.411  0.589
  0.579  0.326  0.095  0.000  0.000
    occupations:
  0.987  0.000  0.000  0.000  0.000
  0.000  0.970  0.000  0.000  0.000
  0.000  0.000  0.970  0.000  0.000
  0.000  0.000  0.000  0.987  0.000
  0.000  0.000  0.000  0.000  0.970
   spin  2
    eigenvalues: 
  0.442  0.442  0.587  0.587  0.587
    eigenvectors:
  0.593  0.407  0.000  0.000  0.000
  0.000  0.000  0.073  0.359  0.568
  0.000  0.000  0.347  0.267  0.386
  0.407  0.593  0.000  0.000  0.000
  0.000  0.000  0.580  0.375  0.046
    occupations:
  0.442  0.000  0.000  0.000  0.000
  0.000  0.587  0.000  0.000  0.000
  0.000  0.000  0.587  0.000  0.000
  0.000  0.000  0.000  0.442  0.000
  0.000  0.000  0.000  0.000  0.587
atomic mag. moment =     2.240239
N of occupied +U levels =   15.061342
 --- exit write_ns ---
 --- in v_hubbard ---
Hubbard energy    0.0000
 -------
 
     Magnetic moment per site:
     atom:    1    charge:    6.4831    magn:    2.5023    constr:    0.0000
     atom:    2    charge:    6.4826    magn:    2.5023    constr:    0.0000

     total cpu time spent up to now is        6.3 secs

     total energy              =    -111.60366032 Ry
     Harris-Foulkes estimate   =    -111.60365779 Ry
     estimated scf accuracy    <       0.00000666 Ry

     total magnetization       =     4.87 Bohr mag/cell
     absolute magnetization    =     5.21 Bohr mag/cell

     iteration #  8     ecut=    30.00 Ry     beta=0.70
     Davidson diagonalization with overlap
     ethr =  4.16E-08,  avg # of iterations =  2.4
 --- enter write_ns ---
 LDA+U parameters:
U( 1)     =  0.00000000
alpha( 1) =  0.00000000
U( 2)     =  0.00000000
alpha( 2) =  0.00000000
atom    1   Tr[ns(na)] (up, down, total) =   4.88086  2.64999  7.53085
   spin  1
    eigenvalues: 
  0.969  0.969  0.969  0.987  0.987
    eigenvectors:
  0.000  0.000  0.000  0.569  0.431
  0.070  0.398  0.532  0.000  0.000
  0.342  0.246  0.412  0.000  0.000
  0.000  0.000  0.000  0.431  0.569
  0.588  0.356  0.056  0.000  0.000
    occupations:
  0.987  0.000  0.000  0.000  0.000
  0.000  0.969  0.000  0.000  0.000
  0.000  0.000  0.969  0.000  0.000
  0.000  0.000  0.000  0.987  0.000
  0.000  0.000  0.000  0.000  0.969
   spin  2
    eigenvalues: 
  0.441  0.441  0.589  0.589  0.589
    eigenvectors:
  0.627  0.373  0.000  0.000  0.000
  0.000  0.000  0.071  0.505  0.425
  0.000  0.000  0.315  0.190  0.496
  0.373  0.627  0.000  0.000  0.000
  0.000  0.000  0.615  0.305  0.080
    occupations:
  0.441  0.000  0.000  0.000  0.000
  0.000  0.589  0.000  0.000  0.000
  0.000  0.000  0.589  0.000  0.000
  0.000  0.000  0.000  0.441  0.000
  0.000  0.000  0.000  0.000  0.589
atomic mag. moment =     2.230870
atom    2   Tr[ns(na)] (up, down, total) =   4.88109  2.65236  7.53344
   spin  1
    eigenvalues: 
  0.969  0.969  0.969  0.987  0.987
    eigenvectors:
  0.000  0.000  0.000  0.589  0.411
  0.071  0.444  0.485  0.000  0.000
  0.345  0.212  0.443  0.000  0.000
  0.000  0.000  0.000  0.411  0.589
  0.584  0.344  0.072  0.000  0.000
    occupations:
  0.987  0.000  0.000  0.000  0.000
  0.000  0.969  0.000  0.000  0.000
  0.000  0.000  0.969  0.000  0.000
  0.000  0.000  0.000  0.987  0.000
  0.000  0.000  0.000  0.000  0.969
   spin  2
    eigenvalues: 
  0.442  0.442  0.590  0.590  0.590
    eigenvectors:
  0.669  0.331  0.000  0.000  0.000
  0.000  0.000  0.074  0.489  0.437
  0.000  0.000  0.346  0.179  0.475
  0.331  0.669  0.000  0.000  0.000
  0.000  0.000  0.580  0.333  0.088
    occupations:
  0.442  0.000  0.000  0.000  0.000
  0.000  0.590  0.000  0.000  0.000
  0.000  0.000  0.590  0.000  0.000
  0.000  0.000  0.000  0.442  0.000
  0.000  0.000  0.000  0.000  0.590
atomic mag. moment =     2.228731
N of occupied +U levels =   15.064291
 --- exit write_ns ---
 --- in v_hubbard ---
Hubbard energy    0.0000
 -------
 
     Magnetic moment per site:
     atom:    1    charge:    6.4830    magn:    2.4977    constr:    0.0000
     atom:    2    charge:    6.4828    magn:    2.4974    constr:    0.0000

     total cpu time spent up to now is        7.0 secs

     total energy              =    -111.60367479 Ry
     Harris-Foulkes estimate   =    -111.60367350 Ry
     estimated scf accuracy    <       0.00000332 Ry

     total magnetization       =     4.85 Bohr mag/cell
     absolute magnetization    =     5.18 Bohr mag/cell

     iteration #  9     ecut=    30.00 Ry     beta=0.70
     Davidson diagonalization with overlap
     ethr =  2.08E-08,  avg # of iterations =  1.6
 --- enter write_ns ---
 LDA+U parameters:
U( 1)     =  0.00000000
alpha( 1) =  0.00000000
U( 2)     =  0.00000000
alpha( 2) =  0.00000000
atom    1   Tr[ns(na)] (up, down, total) =   4.87967  2.65289  7.53256
   spin  1
    eigenvalues: 
  0.969  0.969  0.969  0.987  0.987
    eigenvectors:
  0.000  0.000  0.000  0.512  0.488
  0.067  0.405  0.529  0.000  0.000
  0.324  0.259  0.418  0.000  0.000
  0.000  0.000  0.000  0.488  0.512
  0.610  0.337  0.053  0.000  0.000
    occupations:
  0.987  0.000  0.000  0.000  0.000
  0.000  0.969  0.000  0.000  0.000
  0.000  0.000  0.969  0.000  0.000
  0.000  0.000  0.000  0.987  0.000
  0.000  0.000  0.000  0.000  0.969
   spin  2
    eigenvalues: 
  0.441  0.441  0.590  0.590  0.590
    eigenvectors:
  0.724  0.276  0.000  0.000  0.000
  0.000  0.000  0.073  0.356  0.571
  0.000  0.000  0.352  0.265  0.383
  0.276  0.724  0.000  0.000  0.000
  0.000  0.000  0.574  0.380  0.046
    occupations:
  0.441  0.000  0.000  0.000  0.000
  0.000  0.590  0.000  0.000  0.000
  0.000  0.000  0.590  0.000  0.000
  0.000  0.000  0.000  0.441  0.000
  0.000  0.000  0.000  0.000  0.590
atomic mag. moment =     2.226781
atom    2   Tr[ns(na)] (up, down, total) =   4.87969  2.65347  7.53317
   spin  1
    eigenvalues: 
  0.969  0.969  0.969  0.987  0.987
    eigenvectors:
  0.000  0.000  0.000  0.500  0.500
  0.082  0.676  0.242  0.000  0.000
  0.338  0.067  0.595  0.000  0.000
  0.000  0.000  0.000  0.500  0.500
  0.580  0.256  0.163  0.000  0.000
    occupations:
  0.987  0.000  0.000  0.000  0.000
  0.000  0.969  0.000  0.000  0.000
  0.000  0.000  0.969  0.000  0.000
  0.000  0.000  0.000  0.987  0.000
  0.000  0.000  0.000  0.000  0.969
   spin  2
    eigenvalues: 
  0.441  0.441  0.590  0.590  0.590
    eigenvectors:
  0.663  0.337  0.000  0.000  0.000
  0.000  0.000  0.066  0.270  0.663
  0.000  0.000  0.340  0.346  0.314
  0.337  0.663  0.000  0.000  0.000
  0.000  0.000  0.593  0.384  0.023
    occupations:
  0.441  0.000  0.000  0.000  0.000
  0.000  0.590  0.000  0.000  0.000
  0.000  0.000  0.590  0.000  0.000
  0.000  0.000  0.000  0.441  0.000
  0.000  0.000  0.000  0.000  0.590
atomic mag. moment =     2.226218
N of occupied +U levels =   15.065724
 --- exit write_ns ---
 --- in v_hubbard ---
Hubbard energy    0.0000
 -------
 
     Magnetic moment per site:
     atom:    1    charge:    6.4830    magn:    2.4927    constr:    0.0000
     atom:    2    charge:    6.4831    magn:    2.4924    constr:    0.0000

     total cpu time spent up to now is        7.6 secs

     total energy              =    -111.60367609 Ry
     Harris-Foulkes estimate   =    -111.60367631 Ry
     estimated scf accuracy    <       0.00000045 Ry

     total magnetization       =     4.84 Bohr mag/cell
     absolute magnetization    =     5.18 Bohr mag/cell

     iteration # 10     ecut=    30.00 Ry     beta=0.70
     Davidson diagonalization with overlap
     ethr =  2.84E-09,  avg # of iterations =  3.2
 --- enter write_ns ---
 LDA+U parameters:
U( 1)     =  0.00000000
alpha( 1) =  0.00000000
U( 2)     =  0.00000000
alpha( 2) =  0.00000000
atom    1   Tr[ns(na)] (up, down, total) =   4.87830  2.65531  7.53361
   spin  1
    eigenvalues: 
  0.968  0.968  0.968  0.987  0.987
    eigenvectors:
  0.000  0.000  0.000  0.590  0.410
  0.070  0.489  0.441  0.000  0.000
  0.333  0.191  0.476  0.000  0.000
  0.000  0.000  0.000  0.410  0.590
  0.597  0.320  0.083  0.000  0.000
    occupations:
  0.987  0.000  0.000  0.000  0.000
  0.000  0.968  0.000  0.000  0.000
  0.000  0.000  0.968  0.000  0.000
  0.000  0.000  0.000  0.987  0.000
  0.000  0.000  0.000  0.000  0.968
   spin  2
    eigenvalues: 
  0.441  0.441  0.591  0.591  0.591
    eigenvectors:
  0.594  0.406  0.000  0.000  0.000
  0.000  0.000  0.072  0.575  0.353
  0.000  0.000  0.325  0.138  0.537
  0.406  0.594  0.000  0.000  0.000
  0.000  0.000  0.602  0.287  0.110
    occupations:
  0.441  0.000  0.000  0.000  0.000
  0.000  0.591  0.000  0.000  0.000
  0.000  0.000  0.591  0.000  0.000
  0.000  0.000  0.000  0.441  0.000
  0.000  0.000  0.000  0.000  0.591
atomic mag. moment =     2.222990
atom    2   Tr[ns(na)] (up, down, total) =   4.87824  2.65505  7.53329
   spin  1
    eigenvalues: 
  0.968  0.968  0.968  0.987  0.987
    eigenvectors:
  0.000  0.000  0.000  0.573  0.427
  0.070  0.499  0.431  0.000  0.000
  0.329  0.187  0.484  0.000  0.000
  0.000  0.000  0.000  0.427  0.573
  0.601  0.314  0.085  0.000  0.000
    occupations:
  0.987  0.000  0.000  0.000  0.000
  0.000  0.968  0.000  0.000  0.000
  0.000  0.000  0.968  0.000  0.000
  0.000  0.000  0.000  0.987  0.000
  0.000  0.000  0.000  0.000  0.968
   spin  2
    eigenvalues: 
  0.441  0.441  0.591  0.591  0.591
    eigenvectors:
  0.560  0.440  0.000  0.000  0.000
  0.000  0.000  0.072  0.545  0.383
  0.000  0.000  0.324  0.158  0.518
  0.440  0.560  0.000  0.000  0.000
  0.000  0.000  0.604  0.298  0.098
    occupations:
  0.441  0.000  0.000  0.000  0.000
  0.000  0.591  0.000  0.000  0.000
  0.000  0.000  0.591  0.000  0.000
  0.000  0.000  0.000  0.441  0.000
  0.000  0.000  0.000  0.000  0.591
atomic mag. moment =     2.223192
N of occupied +U levels =   15.066906
 --- exit write_ns ---
 --- in v_hubbard ---
Hubbard energy    0.0000
 -------
 
     Magnetic moment per site:
     atom:    1    charge:    6.4829    magn:    2.4905    constr:    0.0000
     atom:    2    charge:    6.4830    magn:    2.4905    constr:    0.0000

     total cpu time spent up to now is        8.5 secs

     total energy              =    -111.60367757 Ry
     Harris-Foulkes estimate   =    -111.60367766 Ry
     estimated scf accuracy    <       0.00000008 Ry

     total magnetization       =     4.84 Bohr mag/cell
     absolute magnetization    =     5.17 Bohr mag/cell

     iteration # 11     ecut=    30.00 Ry     beta=0.70
     Davidson diagonalization with overlap
     ethr =  4.95E-10,  avg # of iterations =  2.6
 --- enter write_ns ---
 LDA+U parameters:
U( 1)     =  0.00000000
alpha( 1) =  0.00000000
U( 2)     =  0.00000000
alpha( 2) =  0.00000000
atom    1   Tr[ns(na)] (up, down, total) =   4.87782  2.65598  7.53381
   spin  1
    eigenvalues: 
  0.968  0.968  0.968  0.987  0.987
    eigenvectors:
  0.000  0.000  0.000  0.604  0.396
  0.069  0.360  0.570  0.000  0.000
  0.339  0.276  0.385  0.000  0.000
  0.000  0.000  0.000  0.396  0.604
  0.592  0.364  0.045  0.000  0.000
    occupations:
  0.987  0.000  0.000  0.000  0.000
  0.000  0.968  0.000  0.000  0.000
  0.000  0.000  0.968  0.000  0.000
  0.000  0.000  0.000  0.987  0.000
  0.000  0.000  0.000  0.000  0.968
   spin  2
    eigenvalues: 
  0.441  0.441  0.591  0.591  0.591
    eigenvectors:
  0.539  0.461  0.000  0.000  0.000
  0.000  0.000  0.067  0.437  0.496
  0.000  0.000  0.322  0.237  0.442
  0.461  0.539  0.000  0.000  0.000
  0.000  0.000  0.611  0.326  0.062
    occupations:
  0.441  0.000  0.000  0.000  0.000
  0.000  0.591  0.000  0.000  0.000
  0.000  0.000  0.591  0.000  0.000
  0.000  0.000  0.000  0.441  0.000
  0.000  0.000  0.000  0.000  0.591
atomic mag. moment =     2.221838
atom    2   Tr[ns(na)] (up, down, total) =   4.87780  2.65591  7.53371
   spin  1
    eigenvalues: 
  0.968  0.968  0.968  0.987  0.987
    eigenvectors:
  0.000  0.000  0.000  0.594  0.406
  0.074  0.552  0.374  0.000  0.000
  0.341  0.142  0.516  0.000  0.000
  0.000  0.000  0.000  0.406  0.594
  0.585  0.306  0.110  0.000  0.000
    occupations:
  0.987  0.000  0.000  0.000  0.000
  0.000  0.968  0.000  0.000  0.000
  0.000  0.000  0.968  0.000  0.000
  0.000  0.000  0.000  0.987  0.000
  0.000  0.000  0.000  0.000  0.968
   spin  2
    eigenvalues: 
  0.441  0.441  0.591  0.591  0.591
    eigenvectors:
  0.648  0.352  0.000  0.000  0.000
  0.000  0.000  0.076  0.582  0.343
  0.000  0.000  0.339  0.124  0.537
  0.352  0.648  0.000  0.000  0.000
  0.000  0.000  0.585  0.294  0.121
    occupations:
  0.441  0.000  0.000  0.000  0.000
  0.000  0.591  0.000  0.000  0.000
  0.000  0.000  0.591  0.000  0.000
  0.000  0.000  0.000  0.441  0.000
  0.000  0.000  0.000  0.000  0.591
atomic mag. moment =     2.221893
N of occupied +U levels =   15.067519
 --- exit write_ns ---
 --- in v_hubbard ---
Hubbard energy    0.0000
 -------
 
     Magnetic moment per site:
     atom:    1    charge:    6.4830    magn:    2.4911    constr:    0.0000
     atom:    2    charge:    6.4830    magn:    2.4910    constr:    0.0000

     total cpu time spent up to now is        9.3 secs

     total energy              =    -111.60367779 Ry
     Harris-Foulkes estimate   =    -111.60367777 Ry
     estimated scf accuracy    <       0.00000002 Ry

     total magnetization       =     4.83 Bohr mag/cell
     absolute magnetization    =     5.16 Bohr mag/cell

     iteration # 12     ecut=    30.00 Ry     beta=0.70
     Davidson diagonalization with overlap
     ethr =  1.49E-10,  avg # of iterations =  2.6
 --- enter write_ns ---
 LDA+U parameters:
U( 1)     =  0.00000000
alpha( 1) =  0.00000000
U( 2)     =  0.00000000
alpha( 2) =  0.00000000
atom    1   Tr[ns(na)] (up, down, total) =   4.87792  2.65575  7.53367
   spin  1
    eigenvalues: 
  0.968  0.968  0.968  0.987  0.987
    eigenvectors:
  0.000  0.000  0.000  0.600  0.400
  0.071  0.373  0.556  0.000  0.000
  0.355  0.253  0.391  0.000  0.000
  0.000  0.000  0.000  0.400  0.600
  0.574  0.373  0.053  0.000  0.000
    occupations:
  0.987  0.000  0.000  0.000  0.000
  0.000  0.968  0.000  0.000  0.000
  0.000  0.000  0.968  0.000  0.000
  0.000  0.000  0.000  0.987  0.000
  0.000  0.000  0.000  0.000  0.968
   spin  2
    eigenvalues: 
  0.441  0.441  0.591  0.591  0.591
    eigenvectors:
  0.651  0.349  0.000  0.000  0.000
  0.000  0.000  0.069  0.477  0.454
  0.000  0.000  0.327  0.204  0.469
  0.349  0.651  0.000  0.000  0.000
  0.000  0.000  0.604  0.320  0.076
    occupations:
  0.441  0.000  0.000  0.000  0.000
  0.000  0.591  0.000  0.000  0.000
  0.000  0.000  0.591  0.000  0.000
  0.000  0.000  0.000  0.441  0.000
  0.000  0.000  0.000  0.000  0.591
atomic mag. moment =     2.222170
atom    2   Tr[ns(na)] (up, down, total) =   4.87791  2.65574  7.53365
   spin  1
    eigenvalues: 
  0.968  0.968  0.968  0.987  0.987
    eigenvectors:
  0.000  0.000  0.000  0.653  0.347
  0.070  0.389  0.541  0.000  0.000
  0.356  0.244  0.400  0.000  0.000
  0.000  0.000  0.000  0.347  0.653
  0.574  0.367  0.058  0.000  0.000
    occupations:
  0.987  0.000  0.000  0.000  0.000
  0.000  0.968  0.000  0.000  0.000
  0.000  0.000  0.968  0.000  0.000
  0.000  0.000  0.000  0.987  0.000
  0.000  0.000  0.000  0.000  0.968
   spin  2
    eigenvalues: 
  0.441  0.441  0.591  0.591  0.591
    eigenvectors:
  0.548  0.452  0.000  0.000  0.000
  0.000  0.000  0.069  0.374  0.557
  0.000  0.000  0.345  0.263  0.392
  0.452  0.548  0.000  0.000  0.000
  0.000  0.000  0.587  0.363  0.051
    occupations:
  0.441  0.000  0.000  0.000  0.000
  0.000  0.591  0.000  0.000  0.000
  0.000  0.000  0.591  0.000  0.000
  0.000  0.000  0.000  0.441  0.000
  0.000  0.000  0.000  0.000  0.591
atomic mag. moment =     2.222168
N of occupied +U levels =   15.067320
 --- exit write_ns ---
 --- in v_hubbard ---
Hubbard energy    0.0000
 -------
 
     Magnetic moment per site:
     atom:    1    charge:    6.4830    magn:    2.4911    constr:    0.0000
     atom:    2    charge:    6.4830    magn:    2.4911    constr:    0.0000

     total cpu time spent up to now is       10.0 secs

     End of self-consistent calculation

 ------ SPIN UP ------------


          k = 0.0000 0.0000 0.0000 (   461 PWs)   bands (ev):

     4.7372   8.1985   8.1985  10.5276  10.5276  10.5276  11.7106  11.7106
    12.8030  12.8030  12.8030  22.6888  22.6888  22.6888

     occupation numbers 
     1.0000   1.0000   1.0000   1.0000   1.0000   1.0000   1.0000   1.0000
     0.9544   0.9544   0.9544   0.0000   0.0000   0.0000

          k = 0.0000 0.0000 0.1250 (   449 PWs)   bands (ev):

     5.0525   8.3279   8.3323  10.5289  10.5289  10.6112  11.5770  11.7629
    12.5638  12.5638  12.7129  20.7525  23.2612  23.2612

     occupation numbers 
     1.0000   1.0000   1.0000   1.0000   1.0000   1.0000   1.0000   1.0000
     1.0015   1.0015   1.0335   0.0000   0.0000   0.0000

          k = 0.0000 0.0000 0.2500 (   445 PWs)   bands (ev):

     5.9510   8.6447   8.6994  10.5580  10.5580  10.8490  11.1942  11.9137
    12.0112  12.0112  12.4577  17.6269  24.8018  24.8018

     occupation numbers 
     1.0000   1.0000   1.0000   1.0000   1.0000   1.0000   1.0000   1.0000
     1.0000   1.0000   1.0000   0.0000   0.0000   0.0000

          k = 0.0000 0.0000 0.3750 (   438 PWs)   bands (ev):

     7.2452   8.8449   9.2632  10.6176  10.6808  10.6808  11.2094  11.4209
    11.4209  12.0800  12.2103  14.8484  26.9958  26.9958

     occupation numbers 
     1.0000   1.0000   1.0000   1.0000   1.0000   1.0000   1.0000   1.0000
     1.0000   1.0000   1.0000   0.0000   0.0000   0.0000

          k = 0.0000 0.0000-0.5000 (   466 PWs)   bands (ev):

     8.4303   8.4304   9.9371   9.9372  10.9598  10.9598  10.9599  10.9599
    11.6407  11.6408  12.9957  12.9958  29.6005  29.6005

     occupation numbers 
     1.0000   1.0000   1.0000   1.0000   1.0000   1.0000   1.0000   1.0000
     1.0000   1.0000   0.0296   0.0295   0.0000   0.0000

          k = 0.0000 0.1250 0.1250 (   451 PWs)   bands (ev):

     5.3585   8.4392   8.4753  10.3709  10.5053  10.8488  11.5809  11.7244
    12.1590  12.3296  12.8398  20.8530  21.6470  23.7837

     occupation numbers 
     1.0000   1.0000   1.0000   1.0000   1.0000   1.0000   1.0000   1.0000
     1.0000   1.0000   0.8197   0.0000   0.0000   0.0000

          k = 0.0000 0.1250 0.2500 (   438 PWs)   bands (ev):

     6.2221   8.7176   8.8446  10.2778  10.4683  11.1973  11.3520  11.5499
    11.8207  11.8564  12.7469  17.9688  22.6489  25.2225

     occupation numbers 
     1.0000   1.0000   1.0000   1.0000   1.0000   1.0000   1.0000   1.0000
     1.0000   1.0000   1.0325   0.0000   0.0000   0.0000

          k = 0.0000 0.1250 0.3750 (   440 PWs)   bands (ev):

     7.4313   8.8929   9.3438  10.3228  10.3452  10.9732  11.1283  11.3797
    11.6094  12.1694  12.4534  15.1253  24.4106  27.3254

     occupation numbers 
     1.0000   1.0000   1.0000   1.0000   1.0000   1.0000   1.0000   1.0000
     1.0000   1.0000   1.0000   0.0000   0.0000   0.0000

          k = 0.0000 0.1250-0.5000 (   448 PWs)   bands (ev):

     8.4933   8.4933   9.9058   9.9059  10.5499  10.5499  11.1794  11.1795
    12.0480  12.0480  13.0946  13.0946  26.4745  26.4746

     occupation numbers 
     1.0000   1.0000   1.0000   1.0000   1.0000   1.0000   1.0000   1.0000
     1.0000   1.0000  -0.0295  -0.0295   0.0000   0.0000

          k = 0.0000 0.2500 0.2500 (   441 PWs)   bands (ev):

     6.9442   8.7862   9.3009  10.0065  10.4456  10.9053  11.4893  11.5488
    11.6818  11.7732  12.9292  17.9661  20.4960  26.4307

     occupation numbers 
     1.0000   1.0000   1.0000   1.0000   1.0000   1.0000   1.0000   1.0000
     1.0000   1.0000   0.3010   0.0000   0.0000   0.0000

          k = 0.0000 0.2500 0.3750 (   445 PWs)   bands (ev):

     7.8013   8.7201   9.8661   9.9036  10.3627  10.5738  11.3802  11.5532
    12.0453  12.1586  12.8535  15.6321  21.4214  25.6205

     occupation numbers 
     1.0000   1.0000   1.0000   1.0000   1.0000   1.0000   1.0000   1.0000
     1.0000   1.0000   0.7515   0.0000   0.0000   0.0000

          k = 0.0000 0.2500-0.5000 (   446 PWs)   bands (ev):

     8.4104   8.4104  10.0178  10.0179  10.3566  10.3566  11.5035  11.5035
    12.5715  12.5715  13.3390  13.3390  23.2954  23.2954

     occupation numbers 
     1.0000   1.0000   1.0000   1.0000   1.0000   1.0000   1.0000   1.0000
     1.0019   1.0019   0.0000   0.0000   0.0000   0.0000

          k = 0.0000 0.3750 0.3750 (   442 PWs)   bands (ev):

     8.0370   8.4322   9.6592   9.8932  10.6323  11.4989  11.5125  11.8452
    11.9011  12.6242  13.0191  15.2800  20.0135  22.9147

     occupation numbers 
[...]

     8.3130   8.3130   9.4964   9.4964  11.7839  11.7839  11.8870  11.8871
    11.9373  11.9373  14.9679  14.9679  19.9601  19.9601

     occupation numbers 
     1.0000   1.0000   1.0000   1.0000   1.0000   1.0000   1.0000   1.0000
     1.0000   1.0000   0.0000   0.0000   0.0000   0.0000

          k = 0.2500 0.2500 0.2500 (   443 PWs)   bands (ev):

     7.9259   9.4299   9.4299   9.8277   9.8277   9.8519  11.7209  11.7209
    12.1846  12.1846  12.7997  19.8255  19.8255  22.0489

     occupation numbers 
     1.0000   1.0000   1.0000   1.0000   1.0000   1.0000   1.0000   1.0000
     1.0000   1.0000   0.9630   0.0000   0.0000   0.0000

          k = 0.2500 0.2500 0.3750 (   445 PWs)   bands (ev):

     8.6309   9.2782   9.5274   9.6999   9.9038  10.0444  11.6654  11.8094
    11.8832  12.2446  13.6885  17.2403  21.6034  22.8369

     occupation numbers 
     1.0000   1.0000   1.0000   1.0000   1.0000   1.0000   1.0000   1.0000
     1.0000   1.0000   0.0000   0.0000   0.0000   0.0000

          k = 0.2500 0.2500-0.5000 (   442 PWs)   bands (ev):

     8.9544   8.9544   9.6072   9.6072  10.2340  10.2341  11.6583  11.6583
    12.0768  12.0769  15.0681  15.0681  23.6871  23.6871

     occupation numbers 
     1.0000   1.0000   1.0000   1.0000   1.0000   1.0000   1.0000   1.0000
     1.0000   1.0000   0.0000   0.0000   0.0000   0.0000

          k = 0.2500 0.3750 0.3750 (   438 PWs)   bands (ev):

     8.9139   9.0477   9.5528   9.6457  10.1905  10.2740  11.7869  11.8156
    11.8603  12.1347  14.7559  17.6909  20.2408  23.5535

     occupation numbers 
     1.0000   1.0000   1.0000   1.0000   1.0000   1.0000   1.0000   1.0000
     1.0000   1.0000   0.0000   0.0000   0.0000   0.0000

          k = 0.2500 0.3750-0.5000 (   442 PWs)   bands (ev):

     8.9137   8.9137   9.5428   9.5428  10.5499  10.5499  11.7984  11.7984
    11.9777  11.9778  16.1757  16.1757  21.4217  21.4217

     occupation numbers 
     1.0000   1.0000   1.0000   1.0000   1.0000   1.0000   1.0000   1.0000
     1.0000   1.0000   0.0000   0.0000   0.0000   0.0000

          k = 0.2500-0.5000-0.5000 (   436 PWs)   bands (ev):

     8.8452   8.8452   9.4610   9.4610  10.8971  10.8971  11.8453  11.8453
    11.8986  11.8987  16.8533  16.8533  20.1868  20.1868

     occupation numbers 
     1.0000   1.0000   1.0000   1.0000   1.0000   1.0000   1.0000   1.0000
     1.0000   1.0000   0.0000   0.0000   0.0000   0.0000

          k = 0.3750 0.3750 0.3750 (   450 PWs)   bands (ev):

     9.2022   9.5322   9.5322   9.7506   9.9146   9.9146  11.8658  11.8658
    11.9292  11.9292  16.1310  19.6813  19.6813  22.0095

     occupation numbers 
     1.0000   1.0000   1.0000   1.0000   1.0000   1.0000   1.0000   1.0000
     1.0000   1.0000   0.0000   0.0000   0.0000   0.0000

          k = 0.3750 0.3750-0.5000 (   452 PWs)   bands (ev):

     9.2848   9.2848   9.6434   9.6435  10.0969  10.0970  11.8747  11.8747
    11.9215  11.9216  17.7855  17.7855  21.9395  21.9395

     occupation numbers 
     1.0000   1.0000   1.0000   1.0000   1.0000   1.0000   1.0000   1.0000
     1.0000   1.0000   0.0000   0.0000   0.0000   0.0000

          k = 0.3750-0.5000-0.5000 (   440 PWs)   bands (ev):

     9.4368   9.4368   9.4981   9.4981  10.1564  10.1564  11.8981  11.8981
    11.9106  11.9107  18.9837  18.9837  20.7278  20.7278

     occupation numbers 
     1.0000   1.0000   1.0000   1.0000   1.0000   1.0000   1.0000   1.0000
     1.0000   1.0000   0.0000   0.0000   0.0000   0.0000

          k =-0.5000-0.5000-0.5000 (   432 PWs)   bands (ev):

     9.7047   9.7047   9.7047   9.7048   9.7048   9.7048  11.9155  11.9155
    11.9156  11.9156  21.3325  21.3325  21.3325  21.3325

     occupation numbers 
     1.0000   1.0000   1.0000   1.0000   1.0000   1.0000   1.0000   1.0000
     1.0000   1.0000   0.0000   0.0000   0.0000   0.0000

 ------ SPIN DOWN ----------


          k = 0.0000 0.0000 0.0000 (   461 PWs)   bands (ev):

     4.8121  10.2690  10.2690  12.9457  12.9457  12.9457  14.8702  14.8702
    15.5696  15.5696  15.5696  22.8959  22.8959  22.8959

     occupation numbers 
     1.0000   1.0000   1.0000   0.2133   0.2133   0.2133   0.0000   0.0000
     0.0000   0.0000   0.0000   0.0000   0.0000   0.0000

          k = 0.0000 0.0000 0.1250 (   449 PWs)   bands (ev):

     5.1292  10.3634  10.4290  12.9321  12.9321  13.0409  14.6858  14.9395
    15.2281  15.2281  15.4643  21.3033  23.5744  23.5744

     occupation numbers 
     1.0000   1.0000   1.0000   0.2852   0.2852  -0.0306   0.0000   0.0000
     0.0000   0.0000   0.0000   0.0000   0.0000   0.0000

          k = 0.0000 0.0000 0.2500 (   445 PWs)   bands (ev):

     6.0440  10.4880  10.8923  12.9256  12.9256  13.3120  14.1603  14.5041
    14.5041  15.1166  15.1668  18.6748  25.2967  25.2967

     occupation numbers 
     1.0000   1.0000   1.0000   0.3215   0.3215  -0.0001   0.0000   0.0000
     0.0000   0.0000   0.0000   0.0000   0.0000   0.0000

          k = 0.0000 0.0000 0.3750 (   438 PWs)   bands (ev):

     7.4308  10.1588  11.6063  13.0162  13.0162  13.3799  13.7245  13.7985
    13.7985  14.7280  15.3466  16.6588  27.6183  27.6183

     occupation numbers 
     1.0000   1.0000   1.0000  -0.0081  -0.0081   0.0000   0.0000   0.0000
     0.0000   0.0000   0.0000   0.0000   0.0000   0.0000

          k = 0.0000 0.0000-0.5000 (   466 PWs)   bands (ev):

     8.9964   8.9964  12.4782  12.4782  13.2908  13.2908  13.2908  13.2908
    14.2203  14.2203  15.7039  15.7039  30.2716  30.2716

     occupation numbers 
     1.0000   1.0000   1.0001   1.0001  -0.0002  -0.0002  -0.0002  -0.0002
     0.0000   0.0000   0.0000   0.0000   0.0000   0.0000

          k = 0.0000 0.1250 0.1250 (   451 PWs)   bands (ev):

     5.4392  10.5111  10.5271  12.7453  12.8859  13.3053  14.6806  14.7252
    14.8874  14.8978  15.6122  21.5035  22.2899  24.1629

     occupation numbers 
     1.0000   1.0000   1.0000   1.0330   0.5638  -0.0001   0.0000   0.0000
     0.0000   0.0000   0.0000   0.0000   0.0000   0.0000

          k = 0.0000 0.1250 0.2500 (   438 PWs)   bands (ev):

     6.3304  10.6343  10.9475  12.6116  12.7923  13.6971  13.9791  14.2666
    14.3336  15.0460  15.4964  19.0558  23.4582  25.7309

     occupation numbers 
     1.0000   1.0000   1.0000   1.0059   0.9802   0.0000   0.0000   0.0000
     0.0000   0.0000   0.0000   0.0000   0.0000   0.0000

          k = 0.0000 0.1250 0.3750 (   440 PWs)   bands (ev):

     7.6691  10.2827  11.5742  12.6252  12.6573  13.3099  13.8335  13.8571
    14.1648  15.1446  15.2964  16.8789  25.2810  27.9382

     occupation numbers 
     1.0000   1.0000   1.0000   1.0082   1.0162  -0.0001   0.0000   0.0000
     0.0000   0.0000   0.0000   0.0000   0.0000   0.0000

          k = 0.0000 0.1250-0.5000 (   448 PWs)   bands (ev):

     9.1610   9.1610  12.2429  12.2430  12.8479  12.8479  13.6804  13.6804
    14.6698  14.6698  15.7242  15.7242  27.2929  27.2929

     occupation numbers 
     1.0000   1.0000   1.0000   1.0000   0.7803   0.7803   0.0000   0.0000
     0.0000   0.0000   0.0000   0.0000   0.0000   0.0000

          k = 0.0000 0.2500 0.2500 (   441 PWs)   bands (ev):

     7.1377  10.7406  11.2415  12.2854  12.5878  13.2313  13.9554  14.2499
    14.5467  14.9561  15.7161  19.0539  21.7071  26.9770

     occupation numbers 
     1.0000   1.0000   1.0000   1.0000   1.0031  -0.0014   0.0000   0.0000
     0.0000   0.0000   0.0000   0.0000   0.0000   0.0000

          k = 0.0000 0.2500 0.3750 (   445 PWs)   bands (ev):

     8.2919  10.3431  11.7856  12.1433  12.4582  12.6192  14.0091  14.4090
    14.7997  15.1603  15.6215  17.1874  22.6219  26.4958

     occupation numbers 
     1.0000   1.0000   1.0000   1.0000   1.0000   1.0071   0.0000   0.0000
     0.0000   0.0000   0.0000   0.0000   0.0000   0.0000

          k = 0.0000 0.2500-0.5000 (   446 PWs)   bands (ev):

     9.4730   9.4730  12.2472  12.2472  12.2472  12.2472  14.2391  14.2391
    15.2835  15.2835  15.7224  15.7224  24.3521  24.3521

     occupation numbers 
     1.0000   1.0000   1.0000   1.0000   1.0000   1.0000   0.0000   0.0000
     0.0000   0.0000   0.0000   0.0000   0.0000   0.0000

          k = 0.0000 0.3750 0.3750 (   442 PWs)   bands (ev):

     9.0258  10.0493  11.8542  12.0939  12.4357  12.6921  14.3263  14.6852
    15.0666  15.3471  15.8207  16.6666  21.5318  24.0313

     occupation numbers 
     1.0000   1.0000   1.0000   1.0000   1.0000   1.0276   0.0000   0.0000
     0.0000   0.0000   0.0000   0.0000   0.0000   0.0000

          k = 0.0000 0.3750-0.5000 (   436 PWs)   bands (ev):

     9.6086   9.6086  11.8302  11.8302  12.9147  12.9147  14.6205  14.6205
    15.4934  15.4934  15.7129  15.7129  22.2677  22.2677

     occupation numbers 
     1.0000   1.0000   1.0000   1.0000   0.3862   0.3862   0.0000   0.0000
     0.0000   0.0000   0.0000   0.0000   0.0000   0.0000

          k = 0.0000-0.5000-0.5000 (   428 PWs)   bands (ev):

     9.6152   9.6152  11.6833  11.6833  13.5588  13.5588  14.7490  14.7490
    15.1258  15.1258  15.8648  15.8648  21.5090  21.5090

     occupation numbers 
     1.0000   1.0000   1.0000   1.0000   0.0000   0.0000   0.0000   0.0000
     0.0000   0.0000   0.0000   0.0000   0.0000   0.0000

          k = 0.1250 0.1250 0.1250 (   446 PWs)   bands (ev):

     5.7435  10.6410  10.6410  12.6927  12.6927  13.5717  14.0516  14.7723
    14.7723  15.2849  15.2849  22.0975  22.0975  23.0247

     occupation numbers 
     1.0000   1.0000   1.0000   1.0279   1.0279   0.0000   0.0000   0.0000
     0.0000   0.0000   0.0000   0.0000   0.0000   0.0000

          k = 0.1250 0.1250 0.2500 (   438 PWs)   bands (ev):

     6.6149  10.7935  11.0059  12.4991  12.5572  13.3124  14.0268  14.4568
    14.6307  14.9916  15.3591  19.4820  23.5304  24.0239

     occupation numbers 
     1.0000   1.0000   1.0000   1.0001   1.0012  -0.0001   0.0000   0.0000
     0.0000   0.0000   0.0000   0.0000   0.0000   0.0000

          k = 0.1250 0.1250 0.3750 (   443 PWs)   bands (ev):

     7.9124  10.4360  11.5221  12.3621  12.4904  12.9035  14.0654  14.0794
    14.5341  15.1656  15.2671  17.2151  25.3238  25.6771

     occupation numbers 
     1.0000   1.0000   1.0000   1.0000   1.0001   0.4542   0.0000   0.0000
     0.0000   0.0000   0.0000   0.0000   0.0000   0.0000

          k = 0.1250 0.1250-0.5000 (   448 PWs)   bands (ev):

     9.3417   9.3417  12.0293  12.0293  12.6746  12.6746  13.8677  13.8677
    14.9159  14.9159  15.8506  15.8506  27.2364  27.2364

     occupation numbers 
     1.0000   1.0000   1.0000   1.0000   1.0218   1.0218   0.0000   0.0000
     0.0000   0.0000   0.0000   0.0000   0.0000   0.0000

          k = 0.1250 0.2500 0.2500 (   435 PWs)   bands (ev):

     7.4144  10.9394  11.2803  12.2022  12.3439  12.6353  14.4362  14.5951
    14.6357  14.9305  15.4032  19.6533  21.7740  24.7590

     occupation numbers 
     1.0000   1.0000   1.0000   1.0000   1.0000   1.0103   0.0000   0.0000
     0.0000   0.0000   0.0000   0.0000   0.0000   0.0000

          k = 0.1250 0.2500 0.3750 (   441 PWs)   bands (ev):

     8.5482  10.5522  11.6742  12.0258  12.2341  12.3661  14.2630  14.4821
    15.0486  15.3033  15.3451  17.7545  22.7322  26.1753

     occupation numbers 
     1.0000   1.0000   1.0000   1.0000   1.0000   1.0000   0.0000   0.0000
     0.0000   0.0000   0.0000   0.0000   0.0000   0.0000

          k = 0.1250 0.2500-0.5000 (   440 PWs)   bands (ev):

     9.6944   9.6944  11.9001  11.9001  12.2899  12.2899  14.3240  14.3240
    15.1797  15.1797  16.2132  16.2132  24.4768  24.4768

     occupation numbers 
     1.0000   1.0000   1.0000   1.0000   1.0000   1.0000   0.0000   0.0000
     0.0000   0.0000   0.0000   0.0000   0.0000   0.0000

          k = 0.1250 0.3750 0.3750 (   445 PWs)   bands (ev):

     9.2859  10.2641  11.7813  11.9322  12.2862  12.3616  14.4759  14.7309
    15.0709  15.4080  15.8486  17.5249  21.5445  24.1453

     occupation numbers 
     1.0000   1.0000   1.0000   1.0000   1.0000   1.0000   0.0000   0.0000
     0.0000   0.0000   0.0000   0.0000   0.0000   0.0000

          k = 0.1250 0.3750-0.5000 (   440 PWs)   bands (ev):

     9.8445   9.8445  11.7407  11.7407  12.6066  12.6066  14.6798  14.6798
    15.2159  15.2159  16.5515  16.5515  22.3258  22.3258

     occupation numbers 
     1.0000   1.0000   1.0000   1.0000   1.0052   1.0052   0.0000   0.0000
     0.0000   0.0000   0.0000   0.0000   0.0000   0.0000

          k = 0.1250-0.5000-0.5000 (   444 PWs)   bands (ev):

     9.8475   9.8475  11.6210  11.6210  13.0466  13.0466  14.8022  14.8022
    15.1325  15.1325  16.6571  16.6572  21.5122  21.5122

     occupation numbers 
     1.0000   1.0000   1.0000   1.0000  -0.0329  -0.0329   0.0000   0.0000
     0.0000   0.0000   0.0000   0.0000   0.0000   0.0000

          k = 0.2500 0.2500 0.2500 (   443 PWs)   bands (ev):

     8.1811  11.3746  11.3746  11.8730  11.9994  11.9994  14.8463  14.8463
    14.9036  14.9036  15.2712  21.0131  21.0131  22.9950

     occupation numbers 
     1.0000   1.0000   1.0000   1.0000   1.0000   1.0000   0.0000   0.0000
     0.0000   0.0000   0.0000   0.0000   0.0000   0.0000

          k = 0.2500 0.2500 0.3750 (   445 PWs)   bands (ev):

     9.2229  10.9592  11.4835  11.7776  11.8949  11.9927  14.6186  14.7119
    15.0659  15.0966  16.0258  18.7580  22.7187  23.7182

     occupation numbers 
     1.0000   1.0000   1.0000   1.0000   1.0000   1.0000   0.0000   0.0000
     0.0000   0.0000   0.0000   0.0000   0.0000   0.0000

          k = 0.2500 0.2500-0.5000 (   442 PWs)   bands (ev):

    10.1931  10.1931  11.6058  11.6058  12.0392  12.0392  14.5934  14.5934
    15.1392  15.1392  17.0644  17.0644  24.6530  24.6530

     occupation numbers 
     1.0000   1.0000   1.0000   1.0000   1.0000   1.0000   0.0000   0.0000
     0.0000   0.0000   0.0000   0.0000   0.0000   0.0000

          k = 0.2500 0.3750 0.3750 (   438 PWs)   bands (ev):

     9.9818  10.7818  11.6153  11.6317  11.8063  11.9440  14.7761  14.8854
    15.0757  15.1105  16.8490  19.0414  21.5643  24.3682

     occupation numbers 
     1.0000   1.0000   1.0000   1.0000   1.0000   1.0000   0.0000   0.0000
     0.0000   0.0000   0.0000   0.0000   0.0000   0.0000

          k = 0.2500 0.3750-0.5000 (   442 PWs)   bands (ev):

    10.4497  10.4497  11.5512  11.5512  12.0443  12.0443  14.8539  14.8539
    15.1383  15.1383  17.8589  17.8589  22.5819  22.5819

     occupation numbers 
     1.0000   1.0000   1.0000   1.0000   1.0000   1.0000   0.0000   0.0000
     0.0000   0.0000   0.0000   0.0000   0.0000   0.0000

          k = 0.2500-0.5000-0.5000 (   436 PWs)   bands (ev):

    10.4510  10.4510  11.4833  11.4833  12.2863  12.2863  14.9412  14.9412
    15.1490  15.1490  18.2545  18.2545  21.5834  21.5834

     occupation numbers 
     1.0000   1.0000   1.0000   1.0000   1.0000   1.0000   0.0000   0.0000
     0.0000   0.0000   0.0000   0.0000   0.0000   0.0000

          k = 0.3750 0.3750 0.3750 (   450 PWs)   bands (ev):

    10.7875  11.0754  11.4686  11.4686  11.6197  11.6197  15.0290  15.0290
    15.0647  15.0647  17.9473  20.8716  20.8716  22.9880

     occupation numbers 
     1.0000   1.0000   1.0000   1.0000   1.0000   1.0000   0.0000   0.0000
     0.0000   0.0000   0.0000   0.0000   0.0000   0.0000

          k = 0.3750 0.3750-0.5000 (   452 PWs)   bands (ev):

    11.0276  11.0276  11.4521  11.4521  11.6574  11.6574  15.0390  15.0390
    15.1374  15.1374  19.2383  19.2383  22.9492  22.9492

     occupation numbers 
     1.0000   1.0000   1.0000   1.0000   1.0000   1.0000   0.0000   0.0000
     0.0000   0.0000   0.0000   0.0000   0.0000   0.0000

          k = 0.3750-0.5000-0.5000 (   440 PWs)   bands (ev):

    11.1280  11.1280  11.3816  11.3816  11.7277  11.7277  15.0985  15.0985
    15.1659  15.1659  20.1885  20.1885  21.8969  21.8969

     occupation numbers 
     1.0000   1.0000   1.0000   1.0000   1.0000   1.0000   0.0000   0.0000
     0.0000   0.0000   0.0000   0.0000   0.0000   0.0000

          k =-0.5000-0.5000-0.5000 (   432 PWs)   bands (ev):

    11.4357  11.4357  11.4357  11.4357  11.4357  11.4357  15.1727  15.1727
    15.1727  15.1727  22.3523  22.3523  22.3523  22.3523

     occupation numbers 
     1.0000   1.0000   1.0000   1.0000   1.0000   1.0000   0.0000   0.0000
     0.0000   0.0000   0.0000   0.0000   0.0000   0.0000

     the Fermi energy is    12.8962 ev

!    total energy              =    -111.60367780 Ry
     Harris-Foulkes estimate   =    -111.60367780 Ry
     estimated scf accuracy    <          3.7E-10 Ry

     The total energy is the sum of the following terms:

     one-electron contribution =      13.80915730 Ry
     hartree contribution      =      13.43164934 Ry
     xc contribution           =     -52.89941751 Ry
     ewald contribution        =     -85.94499659 Ry
     Hubbard energy            =       0.00000000 Ry
     smearing contrib. (-TS)   =      -0.00007034 Ry

     total magnetization       =     4.83 Bohr mag/cell
     absolute magnetization    =     5.16 Bohr mag/cell

     convergence has been achieved in  12 iterations

     Writing output data file fe.save
 
     init_run     :      0.62s CPU      0.63s WALL (       1 calls)
     electrons    :      9.08s CPU      9.28s WALL (       1 calls)

     Called by init_run:
     wfcinit      :      0.17s CPU      0.18s WALL (       1 calls)
     potinit      :      0.04s CPU      0.04s WALL (       1 calls)

     Called by electrons:
     c_bands      :      6.58s CPU      6.72s WALL (      12 calls)
     sum_band     :      1.64s CPU      1.68s WALL (      12 calls)
     v_of_rho     :      0.34s CPU      0.35s WALL (      13 calls)
     v_h          :      0.01s CPU      0.01s WALL (      13 calls)
     v_xc         :      0.33s CPU      0.34s WALL (      13 calls)
     newd         :      0.51s CPU      0.52s WALL (      13 calls)
     mix_rho      :      0.04s CPU      0.03s WALL (      12 calls)

     Called by c_bands:
     init_us_2    :      0.18s CPU      0.18s WALL (    1820 calls)
     cegterg      :      5.90s CPU      6.04s WALL (     840 calls)

     Called by sum_band:
     sum_band:bec :      0.05s CPU      0.03s WALL (     840 calls)
     addusdens    :      0.67s CPU      0.67s WALL (      12 calls)

     Called by *egterg:
     h_psi        :      3.44s CPU      3.47s WALL (    3063 calls)
     s_psi        :      0.16s CPU      0.21s WALL (    3133 calls)
     g_psi        :      0.06s CPU      0.06s WALL (    2153 calls)
     cdiaghg      :      1.70s CPU      1.74s WALL (    2993 calls)
     cegterg:over :      0.30s CPU      0.26s WALL (    2153 calls)
     cegterg:upda :      0.14s CPU      0.14s WALL (    2153 calls)
     cegterg:last :      0.04s CPU      0.07s WALL (     840 calls)

     Called by h_psi:
     h_psi:vloc   :      2.73s CPU      2.75s WALL (    3063 calls)
     h_psi:vnl    :      0.47s CPU      0.47s WALL (    3063 calls)
     add_vuspsi   :      0.21s CPU      0.22s WALL (    3063 calls)
     vhpsi        :      0.22s CPU      0.23s WALL (    3063 calls)

     General routines
     calbec       :      0.51s CPU      0.49s WALL (    7876 calls)
     fft          :      0.18s CPU      0.20s WALL (     393 calls)
     ffts         :      0.00s CPU      0.00s WALL (      50 calls)
     fftw         :      2.58s CPU      2.61s WALL (   72026 calls)
     interpolate  :      0.02s CPU      0.03s WALL (      50 calls)
     davcio       :      0.00s CPU      0.00s WALL (     140 calls)
 
     Parallel routines
     fft_scatter  :      1.04s CPU      1.21s WALL (   72469 calls)
     Hubbard U routines
     new_ns       :      0.05s CPU      0.06s WALL (      12 calls)
     vhpsi        :      0.22s CPU      0.23s WALL (    3063 calls)
 
     PWSCF        :     9.96s CPU        10.21s WALL

 
   This run was terminated on:  17:32:44  30Jun2014            

=------------------------------------------------------------------------------=
   JOB DONE.
=------------------------------------------------------------------------------=
