
     Program PWSCF v.4.3.2      starts on 10Jul2014 at 11: 6:29 

     This program is part of the open-source Quantum ESPRESSO suite
     for quantum simulation of materials; please cite
         "P. Giannozzi et al., J. Phys.:Condens. Matter 21 395502 (2009);
          URL http://www.quantum-espresso.org", 
     in publications or presentations arising from this work. More details at
     http://www.quantum-espresso.org/wiki/index.php/Citing_Quantum-ESPRESSO

     Current dimensions of program PWSCF are:
     Max number of different atomic species (ntypx) = 10
     Max number of k-points (npk) =  40000
     Max angular momentum in pseudopotentials (lmaxx) =  3
     Waiting for input...
     Reading input from stdin
Warning: card   &IONS ignored
Warning: card   / ignored
Warning: card   &CELL ignored
Warning: card   / ignored
               file O.pbe-rrkjus.UPF: wavefunction(s)  2S renormalized

     Atomic positions and unit cell read from directory:
     tmpz/asymm.save/
 
 
     G-vector sticks info
     --------------------
     sticks:   dense  smooth     PW     G-vecs:    dense   smooth      PW
     Sum        1069     529    185                26729     9467    1895
 


     bravais-lattice index     =            6
     lattice parameter (alat)  =       7.4706  a.u.
     unit-cell volume          =     426.7485 (a.u.)^3
     number of atoms/cell      =            5
     number of atomic types    =            3
     number of electrons       =        40.00
     number of Kohn-Sham states=           20
     kinetic-energy cutoff     =      30.0000  Ry
     charge density cutoff     =     240.0000  Ry
     Exchange-correlation      =  SLA  PW   PBE  PBE ( 1 4 3 4 0)
     EXX-fraction              =        0.00

     celldm(1)=   7.470580  celldm(2)=   0.000000  celldm(3)=   1.023550
     celldm(4)=   0.000000  celldm(5)=   0.000000  celldm(6)=   0.000000

     crystal axes: (cart. coord. in units of alat)
               a(1) = (   1.000000   0.000000   0.000000 )  
               a(2) = (   0.000000   1.000000   0.000000 )  
               a(3) = (   0.000000   0.000000   1.023550 )  

     reciprocal axes: (cart. coord. in units 2 pi/alat)
               b(1) = (  1.000000  0.000000  0.000000 )  
               b(2) = (  0.000000  1.000000  0.000000 )  
               b(3) = (  0.000000  0.000000  0.976992 )  


     PseudoPot. # 1 for Ba read from file:
     tmpz/asymm.save/Ba.pbe-nsp-van.UPF
     MD5 check sum: a011de417d3466d8e94df216395bc359
     Pseudo is Ultrasoft + core correction, Zval = 10.0
     Generated by new atomic code, or converted to UPF format
     Using radial grid of  907 points,  6 beta functions with: 
                l(1) =   0
                l(2) =   0
                l(3) =   1
                l(4) =   1
                l(5) =   2
                l(6) =   2
     Q(r) pseudized with  6 coefficients,  rinner =    1.200   1.200   1.200
                                                       1.200   1.200

     PseudoPot. # 2 for Ti read from file:
     tmpz/asymm.save/Ti.pbe-sp-van_ak.UPF
     MD5 check sum: 8e4df49b7f0d34bbd5052bf3f5ea0213
     Pseudo is Ultrasoft, Zval = 12.0
     Generated by new atomic code, or converted to UPF format
     Using radial grid of  851 points,  6 beta functions with: 
                l(1) =   0
                l(2) =   0
                l(3) =   1
                l(4) =   1
                l(5) =   2
                l(6) =   2
     Q(r) pseudized with  8 coefficients,  rinner =    1.000   1.000   1.000
                                                       1.000   1.000

     PseudoPot. # 3 for O  read from file:
     tmpz/asymm.save/O.pbe-rrkjus.UPF
     MD5 check sum: 390ba29e75625707450f3bd3f0eb6be9
     Pseudo is Ultrasoft, Zval =  6.0
     Generated by new atomic code, or converted to UPF format
     Using radial grid of 1269 points,  4 beta functions with: 
                l(1) =   0
                l(2) =   0
                l(3) =   1
                l(4) =   1
     Q(r) pseudized with 0 coefficients 


     atomic species   valence    mass     pseudopotential
        Ba            10.00   137.34000     Ba( 1.00)
        Ti            12.00    47.90000     Ti( 1.00)
        O              6.00    16.00000     O ( 1.00)

     No symmetry found

   Cartesian axes

     site n.     atom                  positions (alat units)
         1           Ba  tau(   1) = (   0.0000000   0.0000000   0.0210899  )
         2           Ti  tau(   2) = (   0.5000000   0.5000000   0.5428002  )
         3           O   tau(   3) = (   0.5000000   0.5000000  -0.0157918  )
         4           O   tau(   4) = (   0.5000000   0.0000000   0.5038489  )
         5           O   tau(   5) = (   0.0000000   0.5000000   0.5038489  )

     number of k points=    60
                       cart. coord. in units 2pi/alat
        k(    1) = (   0.0000000   0.0000000   0.0000000), wk =   0.0080000
        k(    2) = (   0.0000000   0.0000000   0.1085546), wk =   0.0080000
        k(    3) = (   0.0000000   0.0000000   0.2171093), wk =   0.0080000
        k(    4) = (   0.0000000   0.0000000   0.3256639), wk =   0.0080000
        k(    5) = (   0.0000000   0.0000000   0.4342186), wk =   0.0080000
        k(    6) = (   0.0000000   0.0000000   0.5427732), wk =   0.0080000
        k(    7) = (   0.0000000   0.0000000   0.6513279), wk =   0.0080000
        k(    8) = (   0.0000000   0.0000000   0.7598825), wk =   0.0080000
        k(    9) = (   0.0000000   0.0000000   0.8684372), wk =   0.0080000
        k(   10) = (   0.0000000   0.0000000   0.9769918), wk =   0.0080000
        k(   11) = (   0.0000000   0.2000000   0.0000000), wk =   0.0320000
        k(   12) = (   0.0000000   0.2000000   0.1085546), wk =   0.0320000
        k(   13) = (   0.0000000   0.2000000   0.2171093), wk =   0.0320000
        k(   14) = (   0.0000000   0.2000000   0.3256639), wk =   0.0320000
        k(   15) = (   0.0000000   0.2000000   0.4342186), wk =   0.0320000
        k(   16) = (   0.0000000   0.2000000   0.5427732), wk =   0.0320000
        k(   17) = (   0.0000000   0.2000000   0.6513279), wk =   0.0320000
        k(   18) = (   0.0000000   0.2000000   0.7598825), wk =   0.0320000
        k(   19) = (   0.0000000   0.2000000   0.8684372), wk =   0.0320000
        k(   20) = (   0.0000000   0.2000000   0.9769918), wk =   0.0320000
        k(   21) = (   0.0000000   0.4000000   0.0000000), wk =   0.0320000
        k(   22) = (   0.0000000   0.4000000   0.1085546), wk =   0.0320000
        k(   23) = (   0.0000000   0.4000000   0.2171093), wk =   0.0320000
        k(   24) = (   0.0000000   0.4000000   0.3256639), wk =   0.0320000
        k(   25) = (   0.0000000   0.4000000   0.4342186), wk =   0.0320000
        k(   26) = (   0.0000000   0.4000000   0.5427732), wk =   0.0320000
        k(   27) = (   0.0000000   0.4000000   0.6513279), wk =   0.0320000
        k(   28) = (   0.0000000   0.4000000   0.7598825), wk =   0.0320000
        k(   29) = (   0.0000000   0.4000000   0.8684372), wk =   0.0320000
        k(   30) = (   0.0000000   0.4000000   0.9769918), wk =   0.0320000
        k(   31) = (   0.2000000   0.2000000   0.0000000), wk =   0.0320000
        k(   32) = (   0.2000000   0.2000000   0.1085546), wk =   0.0320000
        k(   33) = (   0.2000000   0.2000000   0.2171093), wk =   0.0320000
        k(   34) = (   0.2000000   0.2000000   0.3256639), wk =   0.0320000
        k(   35) = (   0.2000000   0.2000000   0.4342186), wk =   0.0320000
        k(   36) = (   0.2000000   0.2000000   0.5427732), wk =   0.0320000
        k(   37) = (   0.2000000   0.2000000   0.6513279), wk =   0.0320000
        k(   38) = (   0.2000000   0.2000000   0.7598825), wk =   0.0320000
        k(   39) = (   0.2000000   0.2000000   0.8684372), wk =   0.0320000
        k(   40) = (   0.2000000   0.2000000   0.9769918), wk =   0.0320000
        k(   41) = (   0.2000000   0.4000000   0.0000000), wk =   0.0640000
        k(   42) = (   0.2000000   0.4000000   0.1085546), wk =   0.0640000
        k(   43) = (   0.2000000   0.4000000   0.2171093), wk =   0.0640000
        k(   44) = (   0.2000000   0.4000000   0.3256639), wk =   0.0640000
        k(   45) = (   0.2000000   0.4000000   0.4342186), wk =   0.0640000
        k(   46) = (   0.2000000   0.4000000   0.5427732), wk =   0.0640000
        k(   47) = (   0.2000000   0.4000000   0.6513279), wk =   0.0640000
        k(   48) = (   0.2000000   0.4000000   0.7598825), wk =   0.0640000
        k(   49) = (   0.2000000   0.4000000   0.8684372), wk =   0.0640000
        k(   50) = (   0.2000000   0.4000000   0.9769918), wk =   0.0640000
        k(   51) = (   0.4000000   0.4000000   0.0000000), wk =   0.0320000
        k(   52) = (   0.4000000   0.4000000   0.1085546), wk =   0.0320000
        k(   53) = (   0.4000000   0.4000000   0.2171093), wk =   0.0320000
        k(   54) = (   0.4000000   0.4000000   0.3256639), wk =   0.0320000
        k(   55) = (   0.4000000   0.4000000   0.4342186), wk =   0.0320000
        k(   56) = (   0.4000000   0.4000000   0.5427732), wk =   0.0320000
        k(   57) = (   0.4000000   0.4000000   0.6513279), wk =   0.0320000
        k(   58) = (   0.4000000   0.4000000   0.7598825), wk =   0.0320000
        k(   59) = (   0.4000000   0.4000000   0.8684372), wk =   0.0320000
        k(   60) = (   0.4000000   0.4000000   0.9769918), wk =   0.0320000

     Dense  grid:    26729 G-vectors     FFT dimensions: (  40,  40,  40)

     Smooth grid:     9467 G-vectors     FFT dimensions: (  27,  27,  27)

     Largest allocated arrays     est. size (Mb)     dimensions
        Kohn-Sham Wavefunctions         0.37 Mb     (   1209,   20)
        NL pseudopotentials             1.11 Mb     (   1209,   60)
        Each V/rho on FFT grid          0.98 Mb     (  64000)
        Each G-vector array             0.20 Mb     (  26729)
        G-vector shells                 0.01 Mb     (   1703)
     Largest temporary arrays     est. size (Mb)     dimensions
        Auxiliary wavefunctions         1.48 Mb     (   1209,   80)
        Each subspace H/S matrix        0.10 Mb     (  80,  80)
        Each <psi_i|beta_j> matrix      0.02 Mb     (     60,   20)

     Check: negative/imaginary core charge=   -0.000001    0.000000

     The potential is recalculated from file :
     tmpz/asymm.save/charge-density.dat

     Starting wfc are   35 atomic wfcs

     total cpu time spent up to now is        2.4 secs

     per-process dynamical memory:    28.3 Mb

     Band Structure Calculation
     Davidson diagonalization with overlap

     ethr =  2.50E-11,  avg # of iterations = 15.5

     total cpu time spent up to now is       38.8 secs

     End of band structure calculation

          k = 0.0000 0.0000 0.0000     band energies (ev):

   -45.9374 -22.2285 -22.1573 -22.1573 -14.0831  -6.3813  -5.7659  -5.6890
     0.7017   0.7386   0.7386   8.1212   8.1745   8.1745   8.9722   8.9722
     9.1373  10.0326  10.1248  10.1248

          k = 0.0000 0.0000 0.1086     band energies (ev):

   -45.9373 -22.2340 -22.1573 -22.1573 -14.0696  -6.3883  -5.7620  -5.6868
     0.7560   0.7560   0.7611   7.9121   8.1363   8.1363   8.8741   8.8741
     9.0590   9.7954  10.0915  10.0915

          k = 0.0000 0.0000 0.2171     band energies (ev):

   -45.9370 -22.2482 -22.1562 -22.1562 -14.0349  -6.4389  -5.7133  -5.6813
     0.8010   0.8010   0.9104   7.3975   8.0197   8.0197   8.6812   8.6812
     8.8757   9.3050  10.0051  10.0051

          k = 0.0000 0.0000 0.3257     band energies (ev):

   -45.9365 -22.2628 -22.1553 -22.1553 -13.9948  -6.5348  -5.6750  -5.6093
     0.8535   0.8535   1.0788   6.8426   7.8546   7.8546   8.5325   8.5325
     8.6860   8.8592   9.9086   9.9086

          k = 0.0000 0.0000 0.4342     band energies (ev):

   -45.9364 -22.2732 -22.1550 -22.1550 -13.9682  -6.6088  -5.6708  -5.5242
     0.8886   0.8886   1.1884   6.4948   7.7357   7.7357   8.4606   8.4606
     8.5697   8.6049   9.8475   9.8475

          k = 0.0000 0.0000 0.5428     band energies (ev):

   -45.9364 -22.2732 -22.1550 -22.1550 -13.9682  -6.6088  -5.6708  -5.5242
     0.8886   0.8886   1.1884   6.4948   7.7357   7.7357   8.4606   8.4606
     8.5697   8.6049   9.8475   9.8475

          k = 0.0000 0.0000 0.6513     band energies (ev):

   -45.9365 -22.2628 -22.1553 -22.1553 -13.9948  -6.5348  -5.6750  -5.6093
     0.8535   0.8535   1.0788   6.8426   7.8546   7.8546   8.5325   8.5325
     8.6860   8.8592   9.9086   9.9086

          k = 0.0000 0.0000 0.7599     band energies (ev):

   -45.9370 -22.2482 -22.1562 -22.1562 -14.0349  -6.4389  -5.7133  -5.6813
     0.8010   0.8010   0.9104   7.3975   8.0197   8.0197   8.6812   8.6812
     8.8757   9.3050  10.0051  10.0051

          k = 0.0000 0.0000 0.8684     band energies (ev):

   -45.9373 -22.2340 -22.1573 -22.1573 -14.0696  -6.3883  -5.7620  -5.6868
     0.7560   0.7560   0.7611   7.9121   8.1363   8.1363   8.8741   8.8741
     9.0590   9.7954  10.0915  10.0915

          k = 0.0000 0.0000 0.9770     band energies (ev):

   -45.9374 -22.2285 -22.1573 -22.1573 -14.0831  -6.3813  -5.7659  -5.6890
     0.7017   0.7386   0.7386   8.1212   8.1745   8.1745   8.9722   8.9722
     9.1373  10.0326  10.1248  10.1248

          k = 0.0000 0.2000 0.0000     band energies (ev):

   -45.9368 -22.2274 -22.1775 -22.1561 -14.0358  -6.4287  -5.7455  -5.6384
     0.7613   0.8049   0.8809   7.5439   8.0246   8.0786   8.6103   8.7269
     8.9581   9.4572   9.7848   9.9466

          k = 0.0000 0.2000 0.1086     band energies (ev):

   -45.9367 -22.2330 -22.1767 -22.1558 -14.0241  -6.4074  -5.7512  -5.6416
     0.7330   0.8240   0.9353   7.4738   7.8499   8.0603   8.4136   8.6247
     9.0922   9.3571   9.7323   9.9046

          k = 0.0000 0.2000 0.2171     band energies (ev):

   -45.9365 -22.2466 -22.1763 -22.1552 -13.9941  -6.3789  -5.7472  -5.6386
     0.7227   0.8732   1.0080   7.2047   7.5306   7.9947   8.0894   8.4085
     9.0619   9.2679   9.6065   9.8913

          k = 0.0000 0.2000 0.3257     band energies (ev):

   -45.9361 -22.2616 -22.1755 -22.1543 -13.9594  -6.3958  -5.6957  -5.6247
     0.7545   0.9309   1.0406   6.7603   7.3212   7.7876   7.8690   8.2424
     8.9380   9.3395   9.4756   9.8116

          k = 0.0000 0.2000 0.4342     band energies (ev):

   -45.9360 -22.2720 -22.1750 -22.1542 -13.9365  -6.4306  -5.6461  -5.6032
     0.7974   0.9697   1.0362   6.4504   7.1895   7.6417   7.7575   8.1735
     8.9058   9.3968   9.4220   9.6748

          k = 0.0000 0.2000 0.5428     band energies (ev):

   -45.9360 -22.2720 -22.1750 -22.1542 -13.9365  -6.4306  -5.6461  -5.6032
     0.7974   0.9697   1.0362   6.4504   7.1895   7.6417   7.7575   8.1735
     8.9058   9.3968   9.4220   9.6748

          k = 0.0000 0.2000 0.6513     band energies (ev):

   -45.9361 -22.2616 -22.1755 -22.1543 -13.9594  -6.3958  -5.6957  -5.6247
     0.7545   0.9309   1.0406   6.7603   7.3212   7.7876   7.8690   8.2424
     8.9380   9.3395   9.4756   9.8116

          k = 0.0000 0.2000 0.7599     band energies (ev):

   -45.9365 -22.2466 -22.1763 -22.1552 -13.9941  -6.3789  -5.7472  -5.6386
     0.7227   0.8732   1.0080   7.2047   7.5306   7.9947   8.0894   8.4085
     9.0619   9.2679   9.6065   9.8913

          k = 0.0000 0.2000 0.8684     band energies (ev):

   -45.9367 -22.2330 -22.1767 -22.1558 -14.0241  -6.4074  -5.7512  -5.6416
     0.7330   0.8240   0.9353   7.4738   7.8499   8.0603   8.4136   8.6247
     9.0922   9.3571   9.7323   9.9046

          k = 0.0000 0.2000 0.9770     band energies (ev):

   -45.9368 -22.2274 -22.1775 -22.1561 -14.0358  -6.4287  -5.7455  -5.6384
     0.7613   0.8049   0.8809   7.5439   8.0246   8.0786   8.6103   8.7269
     8.9581   9.4572   9.7848   9.9466

          k = 0.0000 0.4000 0.0000     band energies (ev):

   -45.9362 -22.2259 -22.2107 -22.1549 -13.9569  -6.6086  -5.7219  -5.4158
     0.8632   0.9177   1.1046   6.6057   7.7636   7.7661   8.2365   8.5783
     8.6057   8.8742   9.3816   9.5782

          k = 0.0000 0.4000 0.1086     band energies (ev):

   -45.9361 -22.2314 -22.2103 -22.1546 -13.9483  -6.5558  -5.7175  -5.4414
     0.8362   0.9397   1.0682   6.5822   7.6488   7.7586   7.8679   8.4845
     8.7419   9.1707   9.3013   9.4984

          k = 0.0000 0.4000 0.2171     band energies (ev):

   -45.9358 -22.2447 -22.2094 -22.1541 -13.9262  -6.4162  -5.7142  -5.5016
     0.7767   0.9735   0.9967   6.5267   7.1805   7.4828   7.7372   8.2572
     8.9626   9.1224   9.2610   9.7918

          k = 0.0000 0.4000 0.3257     band energies (ev):

   -45.9355 -22.2597 -22.2086 -22.1533 -13.9009  -6.2438  -5.7297  -5.5597
     0.7217   0.8641   1.0639   6.4412   6.7395   7.0506   7.7077   8.0130
     8.9517   9.1896   9.4446  10.0698

          k = 0.0000 0.4000 0.4342     band energies (ev):

   -45.9353 -22.2703 -22.2082 -22.1530 -13.8841  -6.1198  -5.7492  -5.5968
     0.6924   0.7926   1.1092   6.3190   6.4917   6.8286   7.6835   7.8613
     8.8549   9.4055   9.5482  10.1838

          k = 0.0000 0.4000 0.5428     band energies (ev):

   -45.9353 -22.2703 -22.2082 -22.1530 -13.8841  -6.1198  -5.7492  -5.5968
     0.6924   0.7926   1.1092   6.3190   6.4917   6.8286   7.6835   7.8613
     8.8549   9.4055   9.5482  10.1838

          k = 0.0000 0.4000 0.6513     band energies (ev):

   -45.9355 -22.2597 -22.2086 -22.1533 -13.9009  -6.2438  -5.7297  -5.5597
     0.7217   0.8641   1.0639   6.4412   6.7395   7.0506   7.7077   8.0130
     8.9517   9.1896   9.4446  10.0698

          k = 0.0000 0.4000 0.7599     band energies (ev):

   -45.9358 -22.2447 -22.2094 -22.1541 -13.9262  -6.4162  -5.7142  -5.5016
     0.7767   0.9735   0.9967   6.5267   7.1805   7.4828   7.7372   8.2572
     8.9626   9.1224   9.2610   9.7918

          k = 0.0000 0.4000 0.8684     band energies (ev):

   -45.9361 -22.2314 -22.2103 -22.1546 -13.9483  -6.5558  -5.7175  -5.4414
     0.8362   0.9397   1.0682   6.5822   7.6488   7.7586   7.8679   8.4845
     8.7419   9.1707   9.3013   9.4984

          k = 0.0000 0.4000 0.9770     band energies (ev):

   -45.9362 -22.2259 -22.2107 -22.1549 -13.9569  -6.6086  -5.7219  -5.4158
     0.8632   0.9177   1.1046   6.6057   7.7636   7.7661   8.2365   8.5783
     8.6057   8.8742   9.3816   9.5782

          k = 0.2000 0.2000 0.0000     band energies (ev):

   -45.9364 -22.2265 -22.1769 -22.1764 -13.9942  -6.3904  -5.6917  -5.6621
     0.7018   0.8232   1.0206   7.2674   7.6691   7.9922   8.1854   8.4505
     8.7052   9.2355   9.7876   9.9962

          k = 0.2000 0.2000 0.1086     band energies (ev):

   -45.9363 -22.2319 -22.1766 -22.1760 -13.9838  -6.3557  -5.7064  -5.6543
     0.6826   0.7373   1.1118   7.1714   7.6508   7.8178   8.2249   8.3580
     8.6283   9.3391   9.7136   9.9426

          k = 0.2000 0.2000 0.2171     band energies (ev):

   -45.9361 -22.2455 -22.1762 -22.1757 -13.9573  -6.2841  -5.7246  -5.6340
     0.6333   0.6664   1.1878   6.9491   7.4911   7.6052   8.1359   8.2221
     8.4300   9.4841   9.6982   9.8082

          k = 0.2000 0.2000 0.3257     band energies (ev):

   -45.9358 -22.2609 -22.1752 -22.1749 -13.9267  -6.2455  -5.6970  -5.6107
     0.5763   0.6924   1.1532   6.6877   7.1450   7.5618   7.8421   8.1421
     8.4922   9.5399   9.6634   9.6897

          k = 0.2000 0.2000 0.4342     band energies (ev):

   -45.9356 -22.2708 -22.1746 -22.1743 -13.9064  -6.2486  -5.6472  -5.5953
     0.5387   0.7921   1.0399   6.4467   7.0201   7.5415   7.6374   8.1098
     8.6097   9.5248   9.5834   9.6333

          k = 0.2000 0.2000 0.5428     band energies (ev):

   -45.9356 -22.2708 -22.1746 -22.1743 -13.9064  -6.2486  -5.6472  -5.5953
     0.5387   0.7921   1.0399   6.4467   7.0201   7.5415   7.6374   8.1098
     8.6097   9.5248   9.5834   9.6333

          k = 0.2000 0.2000 0.6513     band energies (ev):

   -45.9358 -22.2609 -22.1752 -22.1749 -13.9267  -6.2455  -5.6970  -5.6107
     0.5763   0.6924   1.1532   6.6877   7.1450   7.5618   7.8421   8.1421
     8.4922   9.5399   9.6634   9.6897

          k = 0.2000 0.2000 0.7599     band energies (ev):

   -45.9361 -22.2455 -22.1762 -22.1757 -13.9573  -6.2841  -5.7246  -5.6340
     0.6333   0.6664   1.1878   6.9491   7.4911   7.6052   8.1359   8.2221
     8.4300   9.4841   9.6982   9.8082

          k = 0.2000 0.2000 0.8684     band energies (ev):

   -45.9363 -22.2319 -22.1766 -22.1760 -13.9838  -6.3557  -5.7064  -5.6543
     0.6826   0.7373   1.1118   7.1714   7.6508   7.8178   8.2249   8.3580
     8.6283   9.3391   9.7136   9.9426

          k = 0.2000 0.2000 0.9770     band energies (ev):

   -45.9364 -22.2265 -22.1769 -22.1764 -13.9942  -6.3904  -5.6917  -5.6621
     0.7018   0.8232   1.0206   7.2674   7.6691   7.9922   8.1854   8.4505
     8.7052   9.2355   9.7876   9.9962

          k = 0.2000 0.4000 0.0000     band energies (ev):

   -45.9357 -22.2250 -22.2091 -22.1747 -13.9251  -6.4475  -5.6738  -5.4908
     0.7605   0.9281   1.0056   6.5286   7.3536   7.5522   7.7518   8.1940
     8.6850   9.0691   9.5238   9.8534

          k = 0.2000 0.4000 0.1086     band energies (ev):

   -45.9356 -22.2302 -22.2090 -22.1747 -13.9170  -6.3935  -5.6661  -5.5013
     0.6817   0.8159   1.0751   6.5106   7.2711   7.5645   7.7627   8.1019
     8.6075   9.2421   9.4442   9.8229

          k = 0.2000 0.4000 0.2171     band energies (ev):

   -45.9353 -22.2436 -22.2080 -22.1741 -13.8963  -6.2505  -5.6549  -5.5242
     0.5463   0.6607   1.0599   6.4741   7.1224   7.4841   7.6449   8.0521
     8.3524   9.4145   9.6358   9.7954

          k = 0.2000 0.4000 0.3257     band energies (ev):

   -45.9351 -22.2591 -22.2074 -22.1737 -13.8724  -6.0711  -5.6658  -5.5394
     0.4740   0.5133   0.9369   6.4169   6.9227   7.1536   7.6456   8.0205
     8.2397   9.5167   9.7649  10.0018

          k = 0.2000 0.4000 0.4342     band energies (ev):

   -45.9349 -22.2691 -22.2068 -22.1734 -13.8567  -5.9330  -5.6941  -5.5468
     0.4058   0.5075   0.7910   6.2975   6.7376   7.0867   7.6376   7.9848
     8.1955   9.6506   9.7773  10.1570

          k = 0.2000 0.4000 0.5428     band energies (ev):

   -45.9349 -22.2691 -22.2068 -22.1734 -13.8567  -5.9330  -5.6941  -5.5468
     0.4058   0.5075   0.7910   6.2975   6.7376   7.0867   7.6376   7.9848
     8.1955   9.6506   9.7773  10.1570

          k = 0.2000 0.4000 0.6513     band energies (ev):

   -45.9351 -22.2591 -22.2074 -22.1737 -13.8724  -6.0711  -5.6658  -5.5394
     0.4740   0.5133   0.9369   6.4169   6.9227   7.1536   7.6456   8.0205
     8.2397   9.5167   9.7649  10.0018

          k = 0.2000 0.4000 0.7599     band energies (ev):

   -45.9353 -22.2436 -22.2080 -22.1741 -13.8963  -6.2505  -5.6549  -5.5242
     0.5463   0.6607   1.0599   6.4741   7.1224   7.4841   7.6449   8.0521
     8.3524   9.4145   9.6358   9.7954

          k = 0.2000 0.4000 0.8684     band energies (ev):

   -45.9356 -22.2302 -22.2090 -22.1747 -13.9170  -6.3935  -5.6661  -5.5013
     0.6817   0.8159   1.0751   6.5106   7.2711   7.5645   7.7627   8.1019
     8.6075   9.2421   9.4442   9.8229

          k = 0.2000 0.4000 0.9770     band energies (ev):

   -45.9357 -22.2250 -22.2091 -22.1747 -13.9251  -6.4475  -5.6738  -5.4908
     0.7605   0.9281   1.0056   6.5286   7.3536   7.5522   7.7518   8.1940
     8.6850   9.0691   9.5238   9.8534

          k = 0.4000 0.4000 0.0000     band energies (ev):

   -45.9350 -22.2237 -22.2076 -22.2074 -13.8726  -6.1887  -5.6140  -5.5787
     0.6341   0.7353   1.0637   6.3083   6.6490   6.7738   7.7299   7.7912
     8.7635   9.3328   9.4942  10.3517

          k = 0.4000 0.4000 0.1086     band energies (ev):

   -45.9350 -22.2290 -22.2074 -22.2071 -13.8653  -6.1334  -5.5970  -5.5695
     0.5590   0.6189   0.9892   6.3080   6.7746   6.7912   7.7800   7.8519
     8.4816   9.3855   9.5499  10.3408

          k = 0.4000 0.4000 0.2171     band energies (ev):

   -45.9346 -22.2422 -22.2065 -22.2061 -13.8468  -5.9877  -5.5529  -5.5483
     0.3745   0.3805   0.7712   6.2993   6.7777   7.1409   7.6196   7.9774
     8.0976   9.5848   9.7171  10.3159

          k = 0.4000 0.4000 0.3257     band energies (ev):

   -45.9343 -22.2574 -22.2056 -22.2053 -13.8256  -5.8062  -5.5340  -5.5010
     0.1728   0.1832   0.4893   6.2483   6.7820   7.0333   7.5877   8.0771
     8.0791   9.8774   9.9536  10.2902

          k = 0.4000 0.4000 0.4342     band energies (ev):

   -45.9341 -22.2672 -22.2048 -22.2044 -13.8116  -5.6583  -5.5501  -5.4658
     0.0449   0.1155   0.2636   6.1384   6.7659   6.7852   7.8317   8.0876
     8.1224  10.0870  10.1404  10.2668

          k = 0.4000 0.4000 0.5428     band energies (ev):

   -45.9341 -22.2672 -22.2048 -22.2044 -13.8116  -5.6583  -5.5501  -5.4658
     0.0449   0.1155   0.2636   6.1384   6.7659   6.7852   7.8317   8.0876
     8.1224  10.0870  10.1404  10.2668

          k = 0.4000 0.4000 0.6513     band energies (ev):

   -45.9343 -22.2574 -22.2056 -22.2053 -13.8256  -5.8062  -5.5340  -5.5010
     0.1728   0.1832   0.4893   6.2483   6.7820   7.0333   7.5877   8.0771
     8.0791   9.8774   9.9536  10.2902

          k = 0.4000 0.4000 0.7599     band energies (ev):

   -45.9346 -22.2422 -22.2065 -22.2061 -13.8468  -5.9877  -5.5529  -5.5483
     0.3745   0.3805   0.7712   6.2993   6.7777   7.1409   7.6196   7.9774
     8.0976   9.5848   9.7171  10.3159

          k = 0.4000 0.4000 0.8684     band energies (ev):

   -45.9350 -22.2290 -22.2074 -22.2071 -13.8653  -6.1334  -5.5970  -5.5695
     0.5590   0.6189   0.9892   6.3080   6.7746   6.7912   7.7800   7.8519
     8.4816   9.3855   9.5499  10.3408

          k = 0.4000 0.4000 0.9770     band energies (ev):

   -45.9350 -22.2237 -22.2076 -22.2074 -13.8726  -6.1887  -5.6140  -5.5787
     0.6341   0.7353   1.0637   6.3083   6.6490   6.7738   7.7299   7.7912
     8.7635   9.3328   9.4942  10.3517



               ==================================================
                            POLARIZATION CALCULATION
                         !!! NOT THOROUGHLY TESTED !!!
               --------------------------------------------------


                     K-POINTS STRINGS USED IN CALCULATIONS
                     ~~~~~~~~~~~~~~~~~~~~~~~~~~~~~~~~~~~~~

       G-vector along string (2 pi/a):  0.00000  0.00000  0.97699
       Modulus of the vector (1/bohr):  0.82171
       Number of k-points per string:  10
       Number of different strings  :   6


                               IONIC POLARIZATION
                               ~~~~~~~~~~~~~~~~~~

        Note: (mod 1) means that the phases (angles ranging from
        -pi to pi) have been mapped to the interval [-1/2,+1/2) by
        dividing by 2*pi; (mod 2) refers to the interval [-1,+1)

  ============================================================================
    Ion    Species    Charge              Position                Phase
  ----------------------------------------------------------------------------
     1        Ba      10.000       0.0000  0.0000  0.0211     0.20605 (mod 2)
     2        Ti      12.000       0.5000  0.5000  0.5428     0.36374 (mod 2)
     3        O        6.000       0.5000  0.5000 -0.0158    -0.09257 (mod 2)
     4        O        6.000       0.5000  0.0000  0.5038     0.95354 (mod 2)
     5        O        6.000       0.0000  0.5000  0.5038     0.95354 (mod 2)
  ----------------------------------------------------------------------------
                                               IONIC PHASE:   0.38429 (mod 2)
  ============================================================================


                            ELECTRONIC POLARIZATION
                            ~~~~~~~~~~~~~~~~~~~~~~~

        Note: (mod 1) means that the phases (angles ranging from
        -pi to pi) have been mapped to the interval [-1/2,+1/2) by
        dividing by 2*pi; (mod 2) refers to the interval [-1,+1)

  ============================================================================
   Spin    String     Weight      First k-point in string         Phase
  ----------------------------------------------------------------------------
    up        1      0.040000      0.0000  0.0000  0.0000     0.06891 (mod 1)
    up        2      0.160000      0.0000  0.2000  0.0000     0.03158 (mod 1)
    up        3      0.160000      0.0000  0.4000  0.0000     0.00133 (mod 1)
    up        4      0.160000      0.2000  0.2000  0.0000    -0.00054 (mod 1)
    up        5      0.320000      0.2000  0.4000  0.0000    -0.02818 (mod 1)
    up        6      0.160000      0.4000  0.4000  0.0000    -0.05090 (mod 1)
  ----------------------------------------------------------------------------
   down       1      0.040000      0.0000  0.0000  0.0000     0.06891 (mod 1)
   down       2      0.160000      0.0000  0.2000  0.0000     0.03158 (mod 1)
   down       3      0.160000      0.0000  0.4000  0.0000     0.00133 (mod 1)
   down       4      0.160000      0.2000  0.2000  0.0000    -0.00054 (mod 1)
   down       5      0.320000      0.2000  0.4000  0.0000    -0.02818 (mod 1)
   down       6      0.160000      0.4000  0.4000  0.0000    -0.05090 (mod 1)
  ----------------------------------------------------------------------------
                                        Average phase (up):  -0.00922 (mod 1)
                                      Average phase (down):  -0.00922 (mod 1)
                                          ELECTRONIC PHASE:  -0.01845 (mod 2)
  ============================================================================


                               SUMMARY OF PHASES
                               ~~~~~~~~~~~~~~~~~

                          Ionic Phase:  0.38429 (mod 2)
                     Electronic Phase: -0.01845 (mod 2)
                          TOTAL PHASE:  0.36584 (mod 2)


                             VALUES OF POLARIZATION
                             ~~~~~~~~~~~~~~~~~~~~~~

        The calculation of phases done along the direction of vector 3
        of the reciprocal lattice gives the following contribution to
        the polarization vector (in different units, and being Omega
        the volume of the unit cell):

           P =   2.7973956  (mod  15.2930243)  (e/Omega).bohr

           P =   0.0065551  (mod   0.0358362)  e/bohr^2

           P =   0.3747686  (mod   2.0488144)  C/m^2

        The polarization direction is:  ( 0.00000 , 0.00000 , 1.00000 )


               ==================================================



     Writing output data file asymm.save
 
     init_run     :      2.18s CPU      2.22s WALL (       1 calls)
     electrons    :     39.53s CPU     39.79s WALL (       1 calls)

     Called by init_run:
     wfcinit      :      0.00s CPU      0.00s WALL (       1 calls)
     potinit      :      0.07s CPU      0.09s WALL (       1 calls)

     Called by electrons:
     c_bands      :     36.19s CPU     36.39s WALL (       1 calls)
     v_of_rho     :      0.06s CPU      0.07s WALL (       1 calls)
     newd         :      0.29s CPU      0.30s WALL (       1 calls)

     Called by c_bands:
     init_us_2    :      0.24s CPU      0.25s WALL (     168 calls)
     cegterg      :     31.95s CPU     32.10s WALL (      60 calls)

     Called by *egterg:
     h_psi        :     24.51s CPU     24.63s WALL (    1048 calls)
     s_psi        :      1.60s CPU      1.57s WALL (    1048 calls)
     g_psi        :      0.53s CPU      0.47s WALL (     928 calls)
     cdiaghg      :      2.38s CPU      2.33s WALL (     988 calls)

     Called by h_psi:
     add_vuspsi   :      1.48s CPU      1.53s WALL (    1048 calls)

     General routines
     calbec       :      1.97s CPU      1.96s WALL (    1156 calls)
     fft          :      0.02s CPU      0.04s WALL (      13 calls)
     ffts         :      0.00s CPU      0.00s WALL (       1 calls)
     fftw         :     17.33s CPU     17.58s WALL (   33048 calls)
     interpolate  :      0.00s CPU      0.00s WALL (       1 calls)
     davcio       :      0.06s CPU      0.06s WALL (     168 calls)
 
 
     PWSCF        :    42.11s CPU        42.48s WALL

 
   This run was terminated on:  11: 7:12  10Jul2014            

=------------------------------------------------------------------------------=
   JOB DONE.
=------------------------------------------------------------------------------=
