
     Program PWSCF v.4.3.2      starts on 10Jul2014 at 11: 3:34 

     This program is part of the open-source Quantum ESPRESSO suite
     for quantum simulation of materials; please cite
         "P. Giannozzi et al., J. Phys.:Condens. Matter 21 395502 (2009);
          URL http://www.quantum-espresso.org", 
     in publications or presentations arising from this work. More details at
     http://www.quantum-espresso.org/wiki/index.php/Citing_Quantum-ESPRESSO

     Current dimensions of program PWSCF are:
     Max number of different atomic species (ntypx) = 10
     Max number of k-points (npk) =  40000
     Max angular momentum in pseudopotentials (lmaxx) =  3
     Waiting for input...
     Reading input from stdin
Warning: card   &IONS ignored
Warning: card   / ignored
Warning: card   &CELL ignored
Warning: card   / ignored
               file O.pbe-rrkjus.UPF: wavefunction(s)  2S renormalized
 
     G-vector sticks info
     --------------------
     sticks:   dense  smooth     PW     G-vecs:    dense   smooth      PW
     Sum        1069     529    161                26729     9467    1607
 


     bravais-lattice index     =            6
     lattice parameter (alat)  =       7.4706  a.u.
     unit-cell volume          =     426.7485 (a.u.)^3
     number of atoms/cell      =            5
     number of atomic types    =            3
     number of electrons       =        40.00
     number of Kohn-Sham states=           20
     kinetic-energy cutoff     =      30.0000  Ry
     charge density cutoff     =     240.0000  Ry
     convergence threshold     =      1.0E-08
     mixing beta               =       0.7000
     number of iterations used =            8  plain     mixing
     Exchange-correlation      =  SLA  PW   PBE  PBE ( 1 4 3 4 0)
     EXX-fraction              =        0.00

     celldm(1)=   7.470580  celldm(2)=   0.000000  celldm(3)=   1.023550
     celldm(4)=   0.000000  celldm(5)=   0.000000  celldm(6)=   0.000000

     crystal axes: (cart. coord. in units of alat)
               a(1) = (   1.000000   0.000000   0.000000 )  
               a(2) = (   0.000000   1.000000   0.000000 )  
               a(3) = (   0.000000   0.000000   1.023550 )  

     reciprocal axes: (cart. coord. in units 2 pi/alat)
               b(1) = (  1.000000  0.000000  0.000000 )  
               b(2) = (  0.000000  1.000000  0.000000 )  
               b(3) = (  0.000000  0.000000  0.976992 )  


     PseudoPot. # 1 for Ba read from file:
     ../../pseudo/Ba.pbe-nsp-van.UPF
     MD5 check sum: a011de417d3466d8e94df216395bc359
     Pseudo is Ultrasoft + core correction, Zval = 10.0
     Generated by new atomic code, or converted to UPF format
     Using radial grid of  907 points,  6 beta functions with: 
                l(1) =   0
                l(2) =   0
                l(3) =   1
                l(4) =   1
                l(5) =   2
                l(6) =   2
     Q(r) pseudized with  6 coefficients,  rinner =    1.200   1.200   1.200
                                                       1.200   1.200

     PseudoPot. # 2 for Ti read from file:
     ../../pseudo/Ti.pbe-sp-van_ak.UPF
     MD5 check sum: 8e4df49b7f0d34bbd5052bf3f5ea0213
     Pseudo is Ultrasoft, Zval = 12.0
     Generated by new atomic code, or converted to UPF format
     Using radial grid of  851 points,  6 beta functions with: 
                l(1) =   0
                l(2) =   0
                l(3) =   1
                l(4) =   1
                l(5) =   2
                l(6) =   2
     Q(r) pseudized with  8 coefficients,  rinner =    1.000   1.000   1.000
                                                       1.000   1.000

     PseudoPot. # 3 for O  read from file:
     ../../pseudo/O.pbe-rrkjus.UPF
     MD5 check sum: 390ba29e75625707450f3bd3f0eb6be9
     Pseudo is Ultrasoft, Zval =  6.0
     Generated by new atomic code, or converted to UPF format
     Using radial grid of 1269 points,  4 beta functions with: 
                l(1) =   0
                l(2) =   0
                l(3) =   1
                l(4) =   1
     Q(r) pseudized with 0 coefficients 


     atomic species   valence    mass     pseudopotential
        Ba            10.00   137.34000     Ba( 1.00)
        Ti            12.00    47.90000     Ti( 1.00)
        O              6.00    16.00000     O ( 1.00)

      8 Sym.Ops. (no inversion)


   Cartesian axes

     site n.     atom                  positions (alat units)
         1           Ba  tau(   1) = (   0.0000000   0.0000000   0.0210899  )
         2           Ti  tau(   2) = (   0.5000000   0.5000000   0.5428002  )
         3           O   tau(   3) = (   0.5000000   0.5000000  -0.0157918  )
         4           O   tau(   4) = (   0.5000000   0.0000000   0.5038489  )
         5           O   tau(   5) = (   0.0000000   0.5000000   0.5038489  )

     number of k points=    18
                       cart. coord. in units 2pi/alat
        k(    1) = (   0.0000000   0.0000000   0.0000000), wk =   0.0160000
        k(    2) = (   0.0000000   0.0000000   0.1953984), wk =   0.0320000
        k(    3) = (   0.0000000   0.0000000   0.3907967), wk =   0.0320000
        k(    4) = (   0.0000000   0.2000000   0.0000000), wk =   0.0640000
        k(    5) = (   0.0000000   0.2000000   0.1953984), wk =   0.1280000
        k(    6) = (   0.0000000   0.2000000   0.3907967), wk =   0.1280000
        k(    7) = (   0.0000000   0.4000000   0.0000000), wk =   0.0640000
        k(    8) = (   0.0000000   0.4000000   0.1953984), wk =   0.1280000
        k(    9) = (   0.0000000   0.4000000   0.3907967), wk =   0.1280000
        k(   10) = (   0.2000000   0.2000000   0.0000000), wk =   0.0640000
        k(   11) = (   0.2000000   0.2000000   0.1953984), wk =   0.1280000
        k(   12) = (   0.2000000   0.2000000   0.3907967), wk =   0.1280000
        k(   13) = (   0.2000000   0.4000000   0.0000000), wk =   0.1280000
        k(   14) = (   0.2000000   0.4000000   0.1953984), wk =   0.2560000
        k(   15) = (   0.2000000   0.4000000   0.3907967), wk =   0.2560000
        k(   16) = (   0.4000000   0.4000000   0.0000000), wk =   0.0640000
        k(   17) = (   0.4000000   0.4000000   0.1953984), wk =   0.1280000
        k(   18) = (   0.4000000   0.4000000   0.3907967), wk =   0.1280000

     Dense  grid:    26729 G-vectors     FFT dimensions: (  40,  40,  40)

     Smooth grid:     9467 G-vectors     FFT dimensions: (  27,  27,  27)

     Largest allocated arrays     est. size (Mb)     dimensions
        Kohn-Sham Wavefunctions         0.37 Mb     (   1209,   20)
        NL pseudopotentials             1.11 Mb     (   1209,   60)
        Each V/rho on FFT grid          0.98 Mb     (  64000)
        Each G-vector array             0.20 Mb     (  26729)
        G-vector shells                 0.01 Mb     (   1703)
     Largest temporary arrays     est. size (Mb)     dimensions
        Auxiliary wavefunctions         1.48 Mb     (   1209,   80)
        Each subspace H/S matrix        0.10 Mb     (  80,  80)
        Each <psi_i|beta_j> matrix      0.02 Mb     (     60,   20)
        Arrays for rho mixing           7.81 Mb     (  64000,   8)

     Check: negative/imaginary core charge=   -0.000001    0.000000

     Initial potential from superposition of free atoms

     starting charge   38.98495, renormalised to   40.00000
     Starting wfc are   35 atomic wfcs

     total cpu time spent up to now is        3.6 secs

     per-process dynamical memory:    29.8 Mb

     Self-consistent Calculation

     iteration #  1     ecut=    30.00 Ry     beta=0.70
     Davidson diagonalization with overlap
     ethr =  1.00E-02,  avg # of iterations =  1.7

     total cpu time spent up to now is        6.2 secs

     total energy              =    -302.79623843 Ry
     Harris-Foulkes estimate   =    -303.45481388 Ry
     estimated scf accuracy    <       0.84896392 Ry

     iteration #  2     ecut=    30.00 Ry     beta=0.70
     Davidson diagonalization with overlap
     ethr =  2.12E-03,  avg # of iterations =  5.9

     total cpu time spent up to now is       10.7 secs

     total energy              =    -301.31739948 Ry
     Harris-Foulkes estimate   =    -304.39941285 Ry
     estimated scf accuracy    <      13.89837477 Ry

     iteration #  3     ecut=    30.00 Ry     beta=0.70
     Davidson diagonalization with overlap
     ethr =  2.12E-03,  avg # of iterations =  4.9

     total cpu time spent up to now is       14.8 secs

     total energy              =    -303.21862076 Ry
     Harris-Foulkes estimate   =    -303.28998082 Ry
     estimated scf accuracy    <       0.18381463 Ry

     iteration #  4     ecut=    30.00 Ry     beta=0.70
     Davidson diagonalization with overlap
     ethr =  4.60E-04,  avg # of iterations =  2.9

     total cpu time spent up to now is       17.7 secs

     total energy              =    -303.25719643 Ry
     Harris-Foulkes estimate   =    -303.27459964 Ry
     estimated scf accuracy    <       0.08399865 Ry

     iteration #  5     ecut=    30.00 Ry     beta=0.70
     Davidson diagonalization with overlap
     ethr =  2.10E-04,  avg # of iterations =  2.9

     total cpu time spent up to now is       20.5 secs

     total energy              =    -303.29634267 Ry
     Harris-Foulkes estimate   =    -303.30596891 Ry
     estimated scf accuracy    <       0.05491597 Ry

     iteration #  6     ecut=    30.00 Ry     beta=0.70
     Davidson diagonalization with overlap
     ethr =  1.37E-04,  avg # of iterations =  2.9

     total cpu time spent up to now is       23.4 secs

     total energy              =    -303.29745367 Ry
     Harris-Foulkes estimate   =    -303.30130321 Ry
     estimated scf accuracy    <       0.01192986 Ry

     iteration #  7     ecut=    30.00 Ry     beta=0.70
     Davidson diagonalization with overlap
     ethr =  2.98E-05,  avg # of iterations =  3.3

     total cpu time spent up to now is       26.4 secs

     total energy              =    -303.30004665 Ry
     Harris-Foulkes estimate   =    -303.30007590 Ry
     estimated scf accuracy    <       0.00009308 Ry

     iteration #  8     ecut=    30.00 Ry     beta=0.70
     Davidson diagonalization with overlap
     ethr =  2.33E-07,  avg # of iterations =  3.7

     total cpu time spent up to now is       30.0 secs

     total energy              =    -303.30013625 Ry
     Harris-Foulkes estimate   =    -303.30014184 Ry
     estimated scf accuracy    <       0.00002343 Ry

     iteration #  9     ecut=    30.00 Ry     beta=0.70
     Davidson diagonalization with overlap
     ethr =  5.86E-08,  avg # of iterations =  3.4

     total cpu time spent up to now is       33.1 secs

     total energy              =    -303.30013959 Ry
     Harris-Foulkes estimate   =    -303.30014031 Ry
     estimated scf accuracy    <       0.00000178 Ry

     iteration # 10     ecut=    30.00 Ry     beta=0.70
     Davidson diagonalization with overlap
     ethr =  4.46E-09,  avg # of iterations =  2.8

     total cpu time spent up to now is       36.2 secs

     total energy              =    -303.30013984 Ry
     Harris-Foulkes estimate   =    -303.30013994 Ry
     estimated scf accuracy    <       0.00000019 Ry

     iteration # 11     ecut=    30.00 Ry     beta=0.70
     Davidson diagonalization with overlap
     ethr =  4.80E-10,  avg # of iterations =  4.0

     total cpu time spent up to now is       39.8 secs

     total energy              =    -303.30013991 Ry
     Harris-Foulkes estimate   =    -303.30013991 Ry
     estimated scf accuracy    <       0.00000001 Ry

     iteration # 12     ecut=    30.00 Ry     beta=0.70
     Davidson diagonalization with overlap
     ethr =  3.28E-11,  avg # of iterations =  3.4

     total cpu time spent up to now is       43.1 secs

     End of self-consistent calculation

          k = 0.0000 0.0000 0.0000 (  1205 PWs)   bands (ev):

   -45.9365 -22.2276 -22.1565 -22.1565 -14.0831  -6.3815  -5.7657  -5.6896
     0.7016   0.7386   0.7386   8.1214   8.1742   8.1742   8.9724   8.9724
     9.1367  10.0325  10.1244  10.1244

          k = 0.0000 0.0000 0.1954 (  1209 PWs)   bands (ev):

   -45.9362 -22.2441 -22.1559 -22.1559 -14.0429  -6.4242  -5.7284  -5.6832
     0.7906   0.7906   0.8763   7.5131   8.0482   8.0482   8.7194   8.7194
     8.9157   9.4062  10.0244  10.0244

          k = 0.0000 0.0000 0.3908 (  1170 PWs)   bands (ev):

   -45.9354 -22.2688 -22.1538 -22.1538 -13.9761  -6.5867  -5.6726  -5.5500
     0.8782   0.8782   1.1558   6.5977   7.7713   7.7713   8.4813   8.4813
     8.6035   8.6780   9.8655   9.8655

          k = 0.0000 0.2000 0.0000 (  1191 PWs)   bands (ev):

   -45.9360 -22.2266 -22.1767 -22.1553 -14.0358  -6.4288  -5.7455  -5.6390
     0.7613   0.8049   0.8809   7.5437   8.0247   8.0784   8.6103   8.7268
     8.9577   9.4569   9.7846   9.9465

          k = 0.0000 0.2000 0.1954 (  1185 PWs)   bands (ev):

   -45.9356 -22.2425 -22.1757 -22.1545 -14.0010  -6.3821  -5.7510  -5.6408
     0.7210   0.8619   0.9958   7.2806   7.5867   8.0126   8.1576   8.4525
     9.1006   9.2536   9.6341   9.8961

          k = 0.0000 0.2000 0.3908 (  1182 PWs)   bands (ev):

   -45.9351 -22.2683 -22.1744 -22.1534 -13.9434  -6.4192  -5.6601  -5.6124
     0.7824   0.9581   1.0400   6.5433   7.2299   7.6797   7.7918   8.1919
     8.9127   9.3864   9.4195   9.7288

          k = 0.0000 0.4000 0.0000 (  1191 PWs)   bands (ev):

   -45.9353 -22.2251 -22.2100 -22.1541 -13.9569  -6.6086  -5.7220  -5.4164
     0.8631   0.9177   1.1046   6.6055   7.7636   7.7662   8.2367   8.5779
     8.6053   8.8739   9.3815   9.5782

          k = 0.0000 0.4000 0.1954 (  1184 PWs)   bands (ev):

   -45.9350 -22.2407 -22.2088 -22.1533 -13.9313  -6.4490  -5.7137  -5.4892
     0.7892   0.9835   0.9953   6.5393   7.2824   7.5676   7.7426   8.3077
     8.9196   9.1605   9.2398   9.7185

          k = 0.0000 0.4000 0.3908 (  1182 PWs)   bands (ev):

   -45.9345 -22.2660 -22.2074 -22.1521 -13.8891  -6.1583  -5.7429  -5.5855
     0.7006   0.8138   1.0956   6.3662   6.5615   6.8852   7.6917   7.9053
     8.8824   9.3300   9.5253  10.1550

          k = 0.2000 0.2000 0.0000 (  1189 PWs)   bands (ev):

   -45.9355 -22.2257 -22.1761 -22.1756 -13.9942  -6.3903  -5.6919  -5.6627
     0.7019   0.8231   1.0206   7.2672   7.6688   7.9923   8.1851   8.4503
     8.7054   9.2355   9.7876   9.9959

          k = 0.2000 0.2000 0.1954 (  1197 PWs)   bands (ev):

   -45.9353 -22.2417 -22.1755 -22.1752 -13.9634  -6.2981  -5.7233  -5.6393
     0.6446   0.6734   1.1807   6.9971   7.5664   7.6149   8.1771   8.2453
     8.4521   9.4607   9.6947   9.8378

          k = 0.2000 0.2000 0.3908 (  1184 PWs)   bands (ev):

   -45.9347 -22.2670 -22.1740 -22.1736 -13.9125  -6.2461  -5.6639  -5.6005
     0.5499   0.7486   1.0879   6.5258   7.0460   7.5465   7.6993   8.1185
     8.5690   9.5350   9.6036   9.6551

          k = 0.2000 0.4000 0.0000 (  1178 PWs)   bands (ev):

   -45.9348 -22.2241 -22.2084 -22.1739 -13.9251  -6.4473  -5.6740  -5.4914
     0.7605   0.9280   1.0056   6.5284   7.3533   7.5519   7.7517   8.1939
     8.6854   9.0693   9.5238   9.8529

          k = 0.2000 0.4000 0.1954 (  1180 PWs)   bands (ev):

   -45.9345 -22.2397 -22.2076 -22.1735 -13.9010  -6.2840  -5.6562  -5.5202
     0.5703   0.6932   1.0730   6.4816   7.1522   7.5377   7.6610   8.0556
     8.3950   9.4047   9.5647   9.7919

          k = 0.2000 0.4000 0.3908 (  1183 PWs)   bands (ev):

   -45.9340 -22.2651 -22.2060 -22.1726 -13.8614  -5.9776  -5.6827  -5.5448
     0.4320   0.4939   0.8434   6.3468   6.7843   7.0980   7.6429   7.9940
     8.2101   9.5994   9.7800  10.1143

          k = 0.4000 0.4000 0.0000 (  1182 PWs)   bands (ev):

   -45.9342 -22.2229 -22.2068 -22.2066 -13.8726  -6.1883  -5.6146  -5.5792
     0.6340   0.7353   1.0636   6.3080   6.6486   6.7736   7.7297   7.7909
     8.7640   9.3331   9.4946  10.3511

          k = 0.4000 0.4000 0.1954 (  1176 PWs)   bands (ev):

   -45.9338 -22.2383 -22.2059 -22.2055 -13.8510  -6.0215  -5.5637  -5.5532
     0.4160   0.4293   0.8235   6.3025   6.7767   7.0639   7.7049   7.9519
     8.1303   9.5333   9.6758  10.3207

          k = 0.4000 0.4000 0.3908 (  1174 PWs)   bands (ev):

   -45.9333 -22.2637 -22.2043 -22.2040 -13.8157  -5.7086  -5.5394  -5.4770
     0.0827   0.1255   0.3392   6.1816   6.7840   6.8341   7.7609   8.0826
     8.1103  10.0237  10.0802  10.2755

!    total energy              =    -303.30013991 Ry
     Harris-Foulkes estimate   =    -303.30013991 Ry
     estimated scf accuracy    <          7.1E-09 Ry

     The total energy is the sum of the following terms:

     one-electron contribution =     -70.98315241 Ry
     hartree contribution      =      59.71634441 Ry
     xc contribution           =     -84.20430145 Ry
     ewald contribution        =    -207.82903045 Ry

     convergence has been achieved in  12 iterations

     Forces acting on atoms (Ry/au):

     atom    1 type  1   force =     0.00000000    0.00000000    0.00015862
     atom    2 type  2   force =     0.00000000    0.00000000    0.00081065
     atom    3 type  3   force =     0.00000000    0.00000000    0.00000466
     atom    4 type  3   force =     0.00000000    0.00000000   -0.00048696
     atom    5 type  3   force =     0.00000000    0.00000000   -0.00048696

     Total force =     0.001075     Total SCF correction =     0.000062


     entering subroutine stress ...

          total   stress  (Ry/bohr**3)                   (kbar)     P=   -2.52
  -0.00002086   0.00000000   0.00000000         -3.07      0.00      0.00
   0.00000000  -0.00002086   0.00000000          0.00     -3.07      0.00
   0.00000000   0.00000000  -0.00000976          0.00      0.00     -1.44


     Writing output data file asymm.save
 
     init_run     :      3.49s CPU      3.52s WALL (       1 calls)
     electrons    :     38.94s CPU     39.46s WALL (       1 calls)
     forces       :      1.13s CPU      1.14s WALL (       1 calls)
     stress       :      3.57s CPU      3.60s WALL (       1 calls)

     Called by init_run:
     wfcinit      :      1.13s CPU      1.13s WALL (       1 calls)
     potinit      :      0.21s CPU      0.21s WALL (       1 calls)

     Called by electrons:
     c_bands      :     26.77s CPU     27.04s WALL (      12 calls)
     sum_band     :      7.42s CPU      7.55s WALL (      12 calls)
     v_of_rho     :      0.92s CPU      0.93s WALL (      13 calls)
     newd         :      3.98s CPU      4.04s WALL (      13 calls)
     mix_rho      :      0.12s CPU      0.12s WALL (      12 calls)

     Called by c_bands:
     init_us_2    :      0.75s CPU      0.75s WALL (     486 calls)
     cegterg      :     25.01s CPU     25.14s WALL (     216 calls)

     Called by *egterg:
     h_psi        :     18.78s CPU     18.96s WALL (     990 calls)
     s_psi        :      1.40s CPU      1.27s WALL (     990 calls)
     g_psi        :      0.33s CPU      0.28s WALL (     756 calls)
     cdiaghg      :      1.65s CPU      1.62s WALL (     972 calls)

     Called by h_psi:
     add_vuspsi   :      1.18s CPU      1.24s WALL (     990 calls)

     General routines
     calbec       :      1.94s CPU      1.94s WALL (    1242 calls)
     fft          :      0.64s CPU      0.63s WALL (     229 calls)
     ffts         :      0.01s CPU      0.02s WALL (      25 calls)
     fftw         :     15.71s CPU     15.76s WALL (   29896 calls)
     interpolate  :      0.10s CPU      0.11s WALL (      25 calls)
     davcio       :      0.16s CPU      0.20s WALL (     702 calls)
 
 
     PWSCF        :    47.33s CPU        48.02s WALL

 
   This run was terminated on:  11: 4:22  10Jul2014            

=------------------------------------------------------------------------------=
   JOB DONE.
=------------------------------------------------------------------------------=
