
     Program PWSCF v.4.3.2      starts on 10Jul2014 at 11: 5:26 

     This program is part of the open-source Quantum ESPRESSO suite
     for quantum simulation of materials; please cite
         "P. Giannozzi et al., J. Phys.:Condens. Matter 21 395502 (2009);
          URL http://www.quantum-espresso.org", 
     in publications or presentations arising from this work. More details at
     http://www.quantum-espresso.org/wiki/index.php/Citing_Quantum-ESPRESSO

     Current dimensions of program PWSCF are:
     Max number of different atomic species (ntypx) = 10
     Max number of k-points (npk) =  40000
     Max angular momentum in pseudopotentials (lmaxx) =  3
     Waiting for input...
     Reading input from stdin
Warning: card   &IONS ignored
Warning: card   / ignored
Warning: card   &CELL ignored
Warning: card   / ignored
               file O.pbe-rrkjus.UPF: wavefunction(s)  2S renormalized

     Atomic positions and unit cell read from directory:
     tmpy/asymm.save/
 
 
     G-vector sticks info
     --------------------
     sticks:   dense  smooth     PW     G-vecs:    dense   smooth      PW
     Sum        1069     529    185                26729     9467    1919
 


     bravais-lattice index     =            6
     lattice parameter (alat)  =       7.4706  a.u.
     unit-cell volume          =     426.7485 (a.u.)^3
     number of atoms/cell      =            5
     number of atomic types    =            3
     number of electrons       =        40.00
     number of Kohn-Sham states=           20
     kinetic-energy cutoff     =      30.0000  Ry
     charge density cutoff     =     240.0000  Ry
     Exchange-correlation      =  SLA  PW   PBE  PBE ( 1 4 3 4 0)
     EXX-fraction              =        0.00

     celldm(1)=   7.470580  celldm(2)=   0.000000  celldm(3)=   1.023550
     celldm(4)=   0.000000  celldm(5)=   0.000000  celldm(6)=   0.000000

     crystal axes: (cart. coord. in units of alat)
               a(1) = (   1.000000   0.000000   0.000000 )  
               a(2) = (   0.000000   1.000000   0.000000 )  
               a(3) = (   0.000000   0.000000   1.023550 )  

     reciprocal axes: (cart. coord. in units 2 pi/alat)
               b(1) = (  1.000000  0.000000  0.000000 )  
               b(2) = (  0.000000  1.000000  0.000000 )  
               b(3) = (  0.000000  0.000000  0.976992 )  


     PseudoPot. # 1 for Ba read from file:
     tmpy/asymm.save/Ba.pbe-nsp-van.UPF
     MD5 check sum: a011de417d3466d8e94df216395bc359
     Pseudo is Ultrasoft + core correction, Zval = 10.0
     Generated by new atomic code, or converted to UPF format
     Using radial grid of  907 points,  6 beta functions with: 
                l(1) =   0
                l(2) =   0
                l(3) =   1
                l(4) =   1
                l(5) =   2
                l(6) =   2
     Q(r) pseudized with  6 coefficients,  rinner =    1.200   1.200   1.200
                                                       1.200   1.200

     PseudoPot. # 2 for Ti read from file:
     tmpy/asymm.save/Ti.pbe-sp-van_ak.UPF
     MD5 check sum: 8e4df49b7f0d34bbd5052bf3f5ea0213
     Pseudo is Ultrasoft, Zval = 12.0
     Generated by new atomic code, or converted to UPF format
     Using radial grid of  851 points,  6 beta functions with: 
                l(1) =   0
                l(2) =   0
                l(3) =   1
                l(4) =   1
                l(5) =   2
                l(6) =   2
     Q(r) pseudized with  8 coefficients,  rinner =    1.000   1.000   1.000
                                                       1.000   1.000

     PseudoPot. # 3 for O  read from file:
     tmpy/asymm.save/O.pbe-rrkjus.UPF
     MD5 check sum: 390ba29e75625707450f3bd3f0eb6be9
     Pseudo is Ultrasoft, Zval =  6.0
     Generated by new atomic code, or converted to UPF format
     Using radial grid of 1269 points,  4 beta functions with: 
                l(1) =   0
                l(2) =   0
                l(3) =   1
                l(4) =   1
     Q(r) pseudized with 0 coefficients 


     atomic species   valence    mass     pseudopotential
        Ba            10.00   137.34000     Ba( 1.00)
        Ti            12.00    47.90000     Ti( 1.00)
        O              6.00    16.00000     O ( 1.00)

     No symmetry found

   Cartesian axes

     site n.     atom                  positions (alat units)
         1           Ba  tau(   1) = (   0.0000000   0.0000000   0.0210899  )
         2           Ti  tau(   2) = (   0.5000000   0.5000000   0.5428002  )
         3           O   tau(   3) = (   0.5000000   0.5000000  -0.0157918  )
         4           O   tau(   4) = (   0.5000000   0.0000000   0.5038489  )
         5           O   tau(   5) = (   0.0000000   0.5000000   0.5038489  )

     number of k points=    90
                       cart. coord. in units 2pi/alat
        k(    1) = (   0.0000000   0.0000000   0.0000000), wk =   0.0080000
        k(    2) = (   0.0000000   0.1111111   0.0000000), wk =   0.0080000
        k(    3) = (   0.0000000   0.2222222   0.0000000), wk =   0.0080000
        k(    4) = (   0.0000000   0.3333333   0.0000000), wk =   0.0080000
        k(    5) = (   0.0000000   0.4444444   0.0000000), wk =   0.0080000
        k(    6) = (   0.0000000   0.5555556   0.0000000), wk =   0.0080000
        k(    7) = (   0.0000000   0.6666667   0.0000000), wk =   0.0080000
        k(    8) = (   0.0000000   0.7777778   0.0000000), wk =   0.0080000
        k(    9) = (   0.0000000   0.8888889   0.0000000), wk =   0.0080000
        k(   10) = (   0.0000000   1.0000000   0.0000000), wk =   0.0080000
        k(   11) = (   0.0000000   0.0000000   0.1953984), wk =   0.0160000
        k(   12) = (   0.0000000   0.1111111   0.1953984), wk =   0.0160000
        k(   13) = (   0.0000000   0.2222222   0.1953984), wk =   0.0160000
        k(   14) = (   0.0000000   0.3333333   0.1953984), wk =   0.0160000
        k(   15) = (   0.0000000   0.4444444   0.1953984), wk =   0.0160000
        k(   16) = (   0.0000000   0.5555556   0.1953984), wk =   0.0160000
        k(   17) = (   0.0000000   0.6666667   0.1953984), wk =   0.0160000
        k(   18) = (   0.0000000   0.7777778   0.1953984), wk =   0.0160000
        k(   19) = (   0.0000000   0.8888889   0.1953984), wk =   0.0160000
        k(   20) = (   0.0000000   1.0000000   0.1953984), wk =   0.0160000
        k(   21) = (   0.0000000   0.0000000   0.3907967), wk =   0.0160000
        k(   22) = (   0.0000000   0.1111111   0.3907967), wk =   0.0160000
        k(   23) = (   0.0000000   0.2222222   0.3907967), wk =   0.0160000
        k(   24) = (   0.0000000   0.3333333   0.3907967), wk =   0.0160000
        k(   25) = (   0.0000000   0.4444444   0.3907967), wk =   0.0160000
        k(   26) = (   0.0000000   0.5555556   0.3907967), wk =   0.0160000
        k(   27) = (   0.0000000   0.6666667   0.3907967), wk =   0.0160000
        k(   28) = (   0.0000000   0.7777778   0.3907967), wk =   0.0160000
        k(   29) = (   0.0000000   0.8888889   0.3907967), wk =   0.0160000
        k(   30) = (   0.0000000   1.0000000   0.3907967), wk =   0.0160000
        k(   31) = (   0.2000000   0.0000000   0.0000000), wk =   0.0160000
        k(   32) = (   0.2000000   0.1111111   0.0000000), wk =   0.0160000
        k(   33) = (   0.2000000   0.2222222   0.0000000), wk =   0.0160000
        k(   34) = (   0.2000000   0.3333333   0.0000000), wk =   0.0160000
        k(   35) = (   0.2000000   0.4444444   0.0000000), wk =   0.0160000
        k(   36) = (   0.2000000   0.5555556   0.0000000), wk =   0.0160000
        k(   37) = (   0.2000000   0.6666667   0.0000000), wk =   0.0160000
        k(   38) = (   0.2000000   0.7777778   0.0000000), wk =   0.0160000
        k(   39) = (   0.2000000   0.8888889   0.0000000), wk =   0.0160000
        k(   40) = (   0.2000000   1.0000000   0.0000000), wk =   0.0160000
        k(   41) = (   0.2000000   0.0000000   0.1953984), wk =   0.0320000
        k(   42) = (   0.2000000   0.1111111   0.1953984), wk =   0.0320000
        k(   43) = (   0.2000000   0.2222222   0.1953984), wk =   0.0320000
        k(   44) = (   0.2000000   0.3333333   0.1953984), wk =   0.0320000
        k(   45) = (   0.2000000   0.4444444   0.1953984), wk =   0.0320000
        k(   46) = (   0.2000000   0.5555556   0.1953984), wk =   0.0320000
        k(   47) = (   0.2000000   0.6666667   0.1953984), wk =   0.0320000
        k(   48) = (   0.2000000   0.7777778   0.1953984), wk =   0.0320000
        k(   49) = (   0.2000000   0.8888889   0.1953984), wk =   0.0320000
        k(   50) = (   0.2000000   1.0000000   0.1953984), wk =   0.0320000
        k(   51) = (   0.2000000   0.0000000   0.3907967), wk =   0.0320000
        k(   52) = (   0.2000000   0.1111111   0.3907967), wk =   0.0320000
        k(   53) = (   0.2000000   0.2222222   0.3907967), wk =   0.0320000
        k(   54) = (   0.2000000   0.3333333   0.3907967), wk =   0.0320000
        k(   55) = (   0.2000000   0.4444444   0.3907967), wk =   0.0320000
        k(   56) = (   0.2000000   0.5555556   0.3907967), wk =   0.0320000
        k(   57) = (   0.2000000   0.6666667   0.3907967), wk =   0.0320000
        k(   58) = (   0.2000000   0.7777778   0.3907967), wk =   0.0320000
        k(   59) = (   0.2000000   0.8888889   0.3907967), wk =   0.0320000
        k(   60) = (   0.2000000   1.0000000   0.3907967), wk =   0.0320000
        k(   61) = (   0.4000000   0.0000000   0.0000000), wk =   0.0160000
        k(   62) = (   0.4000000   0.1111111   0.0000000), wk =   0.0160000
        k(   63) = (   0.4000000   0.2222222   0.0000000), wk =   0.0160000
        k(   64) = (   0.4000000   0.3333333   0.0000000), wk =   0.0160000
        k(   65) = (   0.4000000   0.4444444   0.0000000), wk =   0.0160000
        k(   66) = (   0.4000000   0.5555556   0.0000000), wk =   0.0160000
        k(   67) = (   0.4000000   0.6666667   0.0000000), wk =   0.0160000
        k(   68) = (   0.4000000   0.7777778   0.0000000), wk =   0.0160000
        k(   69) = (   0.4000000   0.8888889   0.0000000), wk =   0.0160000
        k(   70) = (   0.4000000   1.0000000   0.0000000), wk =   0.0160000
        k(   71) = (   0.4000000   0.0000000   0.1953984), wk =   0.0320000
        k(   72) = (   0.4000000   0.1111111   0.1953984), wk =   0.0320000
        k(   73) = (   0.4000000   0.2222222   0.1953984), wk =   0.0320000
        k(   74) = (   0.4000000   0.3333333   0.1953984), wk =   0.0320000
        k(   75) = (   0.4000000   0.4444444   0.1953984), wk =   0.0320000
        k(   76) = (   0.4000000   0.5555556   0.1953984), wk =   0.0320000
        k(   77) = (   0.4000000   0.6666667   0.1953984), wk =   0.0320000
        k(   78) = (   0.4000000   0.7777778   0.1953984), wk =   0.0320000
        k(   79) = (   0.4000000   0.8888889   0.1953984), wk =   0.0320000
        k(   80) = (   0.4000000   1.0000000   0.1953984), wk =   0.0320000
        k(   81) = (   0.4000000   0.0000000   0.3907967), wk =   0.0320000
        k(   82) = (   0.4000000   0.1111111   0.3907967), wk =   0.0320000
        k(   83) = (   0.4000000   0.2222222   0.3907967), wk =   0.0320000
        k(   84) = (   0.4000000   0.3333333   0.3907967), wk =   0.0320000
        k(   85) = (   0.4000000   0.4444444   0.3907967), wk =   0.0320000
        k(   86) = (   0.4000000   0.5555556   0.3907967), wk =   0.0320000
        k(   87) = (   0.4000000   0.6666667   0.3907967), wk =   0.0320000
        k(   88) = (   0.4000000   0.7777778   0.3907967), wk =   0.0320000
        k(   89) = (   0.4000000   0.8888889   0.3907967), wk =   0.0320000
        k(   90) = (   0.4000000   1.0000000   0.3907967), wk =   0.0320000

     Dense  grid:    26729 G-vectors     FFT dimensions: (  40,  40,  40)

     Smooth grid:     9467 G-vectors     FFT dimensions: (  27,  27,  27)

     Largest allocated arrays     est. size (Mb)     dimensions
        Kohn-Sham Wavefunctions         0.37 Mb     (   1209,   20)
        NL pseudopotentials             1.11 Mb     (   1209,   60)
        Each V/rho on FFT grid          0.98 Mb     (  64000)
        Each G-vector array             0.20 Mb     (  26729)
        G-vector shells                 0.01 Mb     (   1703)
     Largest temporary arrays     est. size (Mb)     dimensions
        Auxiliary wavefunctions         1.48 Mb     (   1209,   80)
        Each subspace H/S matrix        0.10 Mb     (  80,  80)
        Each <psi_i|beta_j> matrix      0.02 Mb     (     60,   20)

     Check: negative/imaginary core charge=   -0.000001    0.000000

     The potential is recalculated from file :
     tmpy/asymm.save/charge-density.dat

     Starting wfc are   35 atomic wfcs

     total cpu time spent up to now is        2.4 secs

     per-process dynamical memory:    28.3 Mb

     Band Structure Calculation
     Davidson diagonalization with overlap

     ethr =  2.50E-11,  avg # of iterations = 15.6

     total cpu time spent up to now is       57.6 secs

     End of band structure calculation

          k = 0.0000 0.0000 0.0000     band energies (ev):

   -45.9374 -22.2285 -22.1573 -22.1573 -14.0831  -6.3813  -5.7659  -5.6890
     0.7017   0.7386   0.7386   8.1212   8.1745   8.1745   8.9722   8.9722
     9.1373  10.0326  10.1248  10.1248

          k = 0.0000 0.1111 0.0000     band energies (ev):

   -45.9372 -22.2279 -22.1643 -22.1568 -14.0672  -6.3889  -5.7602  -5.6806
     0.7216   0.7608   0.7872   7.9517   8.0987   8.1504   8.8194   8.8756
     9.0925   9.7823   9.9929  10.1158

          k = 0.0000 0.2222 0.0000     band energies (ev):

   -45.9367 -22.2271 -22.1812 -22.1558 -14.0264  -6.4456  -5.7416  -5.6192
     0.7733   0.8182   0.9084   7.4265   7.9986   8.0501   8.5597   8.6938
     8.9156   9.3715   9.7306   9.8961

          k = 0.0000 0.3333 0.0000     band energies (ev):

   -45.9364 -22.2262 -22.2020 -22.1554 -13.9790  -6.5520  -5.7271  -5.4892
     0.8343   0.8858   1.0435   6.8580   7.8434   7.8661   8.3393   8.5946
     8.7029   9.0016   9.4862   9.6698

          k = 0.0000 0.4444 0.0000     band energies (ev):

   -45.9361 -22.2259 -22.2140 -22.1548 -13.9475  -6.6335  -5.7198  -5.3827
     0.8756   0.9313   1.1302   6.5005   7.7223   7.7294   8.1898   8.5652
     8.5752   8.8294   9.3382   9.5410

          k = 0.0000 0.5556 0.0000     band energies (ev):

   -45.9361 -22.2259 -22.2140 -22.1548 -13.9475  -6.6335  -5.7198  -5.3827
     0.8756   0.9313   1.1302   6.5005   7.7223   7.7294   8.1898   8.5652
     8.5752   8.8294   9.3382   9.5410

          k = 0.0000 0.6667 0.0000     band energies (ev):

   -45.9364 -22.2262 -22.2020 -22.1554 -13.9790  -6.5520  -5.7271  -5.4892
     0.8343   0.8858   1.0435   6.8580   7.8434   7.8661   8.3393   8.5946
     8.7029   9.0016   9.4862   9.6698

          k = 0.0000 0.7778 0.0000     band energies (ev):

   -45.9367 -22.2271 -22.1812 -22.1558 -14.0264  -6.4456  -5.7416  -5.6192
     0.7733   0.8182   0.9084   7.4265   7.9986   8.0501   8.5597   8.6938
     8.9156   9.3715   9.7306   9.8961

          k = 0.0000 0.8889 0.0000     band energies (ev):

   -45.9372 -22.2279 -22.1643 -22.1568 -14.0672  -6.3889  -5.7602  -5.6806
     0.7216   0.7608   0.7872   7.9517   8.0987   8.1504   8.8194   8.8756
     9.0925   9.7823   9.9929  10.1158

          k = 0.0000 1.0000 0.0000     band energies (ev):

   -45.9374 -22.2285 -22.1573 -22.1573 -14.0831  -6.3813  -5.7659  -5.6890
     0.7017   0.7386   0.7386   8.1212   8.1745   8.1745   8.9722   8.9722
     9.1373  10.0326  10.1248  10.1248

          k = 0.0000 0.0000 0.1954     band energies (ev):

   -45.9371 -22.2450 -22.1567 -22.1567 -14.0429  -6.4238  -5.7288  -5.6826
     0.7906   0.7906   0.8764   7.5127   8.0486   8.0486   8.7191   8.7191
     8.9162   9.4065  10.0249  10.0249

          k = 0.0000 0.1111 0.1954     band energies (ev):

   -45.9368 -22.2443 -22.1631 -22.1559 -14.0288  -6.4023  -5.7409  -5.6721
     0.7442   0.8144   0.9404   7.4511   7.8708   8.0431   8.4408   8.6185
     9.0839   9.3725   9.8758   9.9396

          k = 0.0000 0.2222 0.1954     band energies (ev):

   -45.9365 -22.2431 -22.1806 -22.1553 -13.9927  -6.3816  -5.7504  -5.6281
     0.7210   0.8761   1.0049   7.2099   7.5265   7.9956   8.0845   8.4139
     9.0654   9.2490   9.5710   9.8871

          k = 0.0000 0.3333 0.1954     band energies (ev):

   -45.9361 -22.2422 -22.2007 -22.1547 -13.9508  -6.4169  -5.7281  -5.5430
     0.7531   0.9490   1.0143   6.7641   7.3423   7.7241   7.8414   8.3132
     8.9376   9.2402   9.2837   9.7955

          k = 0.0000 0.4444 0.1954     band energies (ev):

   -45.9357 -22.2412 -22.2131 -22.1539 -13.9230  -6.4646  -5.7076  -5.4628
     0.8122   0.9794   0.9983   6.4435   7.2565   7.5062   7.6979   8.3111
     8.9165   9.1089   9.2469   9.6757

          k = 0.0000 0.5556 0.1954     band energies (ev):

   -45.9357 -22.2412 -22.2131 -22.1539 -13.9230  -6.4646  -5.7076  -5.4628
     0.8122   0.9794   0.9983   6.4435   7.2565   7.5062   7.6979   8.3111
     8.9165   9.1089   9.2469   9.6757

          k = 0.0000 0.6667 0.1954     band energies (ev):

   -45.9361 -22.2422 -22.2007 -22.1547 -13.9508  -6.4169  -5.7281  -5.5430
     0.7531   0.9490   1.0143   6.7641   7.3423   7.7241   7.8414   8.3132
     8.9376   9.2402   9.2837   9.7955

          k = 0.0000 0.7778 0.1954     band energies (ev):

   -45.9365 -22.2431 -22.1806 -22.1553 -13.9927  -6.3816  -5.7504  -5.6281
     0.7210   0.8761   1.0049   7.2099   7.5265   7.9956   8.0845   8.4139
     9.0654   9.2490   9.5710   9.8871

          k = 0.0000 0.8889 0.1954     band energies (ev):

   -45.9368 -22.2443 -22.1631 -22.1559 -14.0288  -6.4023  -5.7409  -5.6721
     0.7442   0.8144   0.9404   7.4511   7.8708   8.0431   8.4408   8.6185
     9.0839   9.3725   9.8758   9.9396

          k = 0.0000 1.0000 0.1954     band energies (ev):

   -45.9371 -22.2450 -22.1567 -22.1567 -14.0429  -6.4238  -5.7288  -5.6826
     0.7906   0.7906   0.8764   7.5127   8.0486   8.0486   8.7191   8.7191
     8.9162   9.4065  10.0249  10.0249

          k = 0.0000 0.0000 0.3908     band energies (ev):

   -45.9363 -22.2696 -22.1546 -22.1546 -13.9761  -6.5861  -5.6720  -5.5505
     0.8781   0.8781   1.1559   6.5972   7.7717   7.7717   8.4808   8.4808
     8.6040   8.6784   9.8660   9.8660

          k = 0.0000 0.1111 0.3908     band energies (ev):

   -45.9363 -22.2696 -22.1621 -22.1550 -13.9651  -6.5299  -5.6611  -5.5787
     0.8420   0.9048   1.1185   6.5767   7.6234   7.7785   7.9841   8.3801
     8.7354   9.1876   9.6954   9.6963

          k = 0.0000 0.2222 0.3908     band energies (ev):

   -45.9359 -22.2689 -22.1793 -22.1540 -13.9369  -6.3856  -5.6702  -5.6116
     0.7673   0.9741   1.0156   6.5334   7.1229   7.5931   7.7957   8.1380
     8.9584   9.3469   9.3926   9.7946

          k = 0.0000 0.3333 0.3908     band energies (ev):

   -45.9355 -22.2676 -22.1989 -22.1532 -13.9043  -6.2240  -5.7299  -5.5906
     0.7108   0.8845   1.0565   6.4663   6.6796   7.1093   7.7723   7.9251
     9.0203   9.1907   9.4840  10.0683

          k = 0.0000 0.4444 0.3908     band energies (ev):

   -45.9353 -22.2667 -22.2119 -22.1529 -13.8827  -6.1337  -5.7422  -5.5849
     0.7046   0.7767   1.1124   6.2999   6.5319   6.7969   7.6473   7.9092
     8.8256   9.4114   9.5250  10.1853

          k = 0.0000 0.5556 0.3908     band energies (ev):

   -45.9353 -22.2667 -22.2119 -22.1529 -13.8827  -6.1337  -5.7422  -5.5849
     0.7046   0.7767   1.1124   6.2999   6.5319   6.7969   7.6473   7.9092
     8.8256   9.4114   9.5250  10.1853

          k = 0.0000 0.6667 0.3908     band energies (ev):

   -45.9355 -22.2676 -22.1989 -22.1532 -13.9043  -6.2240  -5.7299  -5.5906
     0.7108   0.8845   1.0565   6.4663   6.6796   7.1093   7.7723   7.9251
     9.0203   9.1907   9.4840  10.0683

          k = 0.0000 0.7778 0.3908     band energies (ev):

   -45.9359 -22.2689 -22.1793 -22.1540 -13.9369  -6.3856  -5.6702  -5.6116
     0.7673   0.9741   1.0156   6.5334   7.1229   7.5931   7.7957   8.1380
     8.9584   9.3469   9.3926   9.7946

          k = 0.0000 0.8889 0.3908     band energies (ev):

   -45.9363 -22.2696 -22.1621 -22.1550 -13.9651  -6.5299  -5.6611  -5.5787
     0.8420   0.9048   1.1185   6.5767   7.6234   7.7785   7.9841   8.3801
     8.7354   9.1876   9.6954   9.6963

          k = 0.0000 1.0000 0.3908     band energies (ev):

   -45.9363 -22.2696 -22.1546 -22.1546 -13.9761  -6.5861  -5.6720  -5.5505
     0.8781   0.8781   1.1559   6.5972   7.7717   7.7717   8.4808   8.4808
     8.6040   8.6784   9.8660   9.8660

          k = 0.2000 0.0000 0.0000     band energies (ev):

   -45.9368 -22.2274 -22.1775 -22.1561 -14.0358  -6.4287  -5.7455  -5.6384
     0.7613   0.8049   0.8809   7.5439   8.0246   8.0786   8.6103   8.7269
     8.9581   9.4572   9.7848   9.9466

          k = 0.2000 0.1111 0.0000     band energies (ev):

   -45.9367 -22.2270 -22.1772 -22.1629 -14.0218  -6.4092  -5.7295  -5.6518
     0.7376   0.7830   0.9604   7.4705   7.9068   8.0200   8.4636   8.5873
     9.0606   9.1322   9.9092   9.9549

          k = 0.2000 0.2222 0.0000     band energies (ev):

   -45.9364 -22.2264 -22.1807 -22.1767 -13.9860  -6.3900  -5.6842  -5.6556
     0.6994   0.8354   1.0294   7.1917   7.6173   7.9780   8.1036   8.4089
     8.6533   9.2460   9.7438   9.9937

          k = 0.2000 0.3333 0.0000     band energies (ev):

   -45.9359 -22.2255 -22.2004 -22.1754 -13.9444  -6.4196  -5.6776  -5.5543
     0.7249   0.8979   1.0314   6.7505   7.4325   7.6988   7.8451   8.2454
     8.6098   9.1850   9.5632   9.9200

          k = 0.2000 0.4444 0.0000     band energies (ev):

   -45.9356 -22.2249 -22.2128 -22.1745 -13.9169  -6.4613  -5.6717  -5.4617
     0.7836   0.9418   0.9855   6.4326   7.3128   7.5052   7.7088   8.1747
     8.7554   8.9799   9.5175   9.8174

          k = 0.2000 0.5556 0.0000     band energies (ev):

   -45.9356 -22.2249 -22.2128 -22.1745 -13.9169  -6.4613  -5.6717  -5.4617
     0.7836   0.9418   0.9855   6.4326   7.3128   7.5052   7.7088   8.1747
     8.7554   8.9799   9.5175   9.8174

          k = 0.2000 0.6667 0.0000     band energies (ev):

   -45.9359 -22.2255 -22.2004 -22.1754 -13.9444  -6.4196  -5.6776  -5.5543
     0.7249   0.8979   1.0314   6.7505   7.4325   7.6988   7.8451   8.2454
     8.6098   9.1850   9.5632   9.9200

          k = 0.2000 0.7778 0.0000     band energies (ev):

   -45.9364 -22.2264 -22.1807 -22.1767 -13.9860  -6.3900  -5.6842  -5.6556
     0.6994   0.8354   1.0294   7.1917   7.6173   7.9780   8.1036   8.4089
     8.6533   9.2460   9.7438   9.9937

          k = 0.2000 0.8889 0.0000     band energies (ev):

   -45.9367 -22.2270 -22.1772 -22.1629 -14.0218  -6.4092  -5.7295  -5.6518
     0.7376   0.7830   0.9604   7.4705   7.9068   8.0200   8.4636   8.5873
     9.0606   9.1322   9.9092   9.9549

          k = 0.2000 1.0000 0.0000     band energies (ev):

   -45.9368 -22.2274 -22.1775 -22.1561 -14.0358  -6.4287  -5.7455  -5.6384
     0.7613   0.8049   0.8809   7.5439   8.0246   8.0786   8.6103   8.7269
     8.9581   9.4572   9.7848   9.9466

          k = 0.2000 0.0000 0.1954     band energies (ev):

   -45.9365 -22.2434 -22.1765 -22.1553 -14.0010  -6.3818  -5.7513  -5.6402
     0.7210   0.8619   0.9958   7.2806   7.5866   8.0128   8.1575   8.4524
     9.1010   9.2540   9.6344   9.8964

          k = 0.2000 0.1111 0.1954     band energies (ev):

   -45.9364 -22.2432 -22.1764 -22.1624 -13.9883  -6.3480  -5.7435  -5.6442
     0.7004   0.7420   1.1111   7.1823   7.5794   7.8358   8.2222   8.3424
     8.8587   9.3318   9.7051   9.8594

          k = 0.2000 0.2222 0.1954     band energies (ev):

   -45.9361 -22.2422 -22.1799 -22.1759 -13.9559  -6.2879  -5.7156  -5.6334
     0.6322   0.6626   1.1863   6.9455   7.5223   7.5889   8.1553   8.2166
     8.3726   9.4809   9.6724   9.8427

          k = 0.2000 0.3333 0.1954     band energies (ev):

   -45.9356 -22.2411 -22.1995 -22.1748 -13.9184  -6.2734  -5.6729  -5.5712
     0.5940   0.6499   1.1413   6.6595   7.2190   7.5654   7.8435   8.0747
     8.3464   9.4583   9.5883   9.8287

          k = 0.2000 0.4444 0.1954     band energies (ev):

   -45.9353 -22.2405 -22.2120 -22.1742 -13.8936  -6.2913  -5.6497  -5.4940
     0.5597   0.7283   1.0271   6.3965   7.1510   7.4918   7.6056   8.0508
     8.4197   9.3826   9.5513   9.7704

          k = 0.2000 0.5556 0.1954     band energies (ev):

   -45.9353 -22.2405 -22.2120 -22.1742 -13.8936  -6.2913  -5.6497  -5.4940
     0.5597   0.7283   1.0271   6.3965   7.1510   7.4918   7.6056   8.0508
     8.4197   9.3826   9.5513   9.7704

          k = 0.2000 0.6667 0.1954     band energies (ev):

   -45.9356 -22.2411 -22.1995 -22.1748 -13.9184  -6.2734  -5.6729  -5.5712
     0.5940   0.6499   1.1413   6.6595   7.2190   7.5654   7.8435   8.0747
     8.3464   9.4583   9.5883   9.8287

          k = 0.2000 0.7778 0.1954     band energies (ev):

   -45.9361 -22.2422 -22.1799 -22.1759 -13.9559  -6.2879  -5.7156  -5.6334
     0.6322   0.6626   1.1863   6.9455   7.5223   7.5889   8.1553   8.2166
     8.3726   9.4809   9.6724   9.8427

          k = 0.2000 0.8889 0.1954     band energies (ev):

   -45.9364 -22.2432 -22.1764 -22.1624 -13.9883  -6.3480  -5.7435  -5.6442
     0.7004   0.7420   1.1111   7.1823   7.5794   7.8358   8.2222   8.3424
     8.8587   9.3318   9.7051   9.8594

          k = 0.2000 1.0000 0.1954     band energies (ev):

   -45.9365 -22.2434 -22.1765 -22.1553 -14.0010  -6.3818  -5.7513  -5.6402
     0.7210   0.8619   0.9958   7.2806   7.5866   8.0128   8.1575   8.4524
     9.1010   9.2540   9.6344   9.8964

          k = 0.2000 0.0000 0.3908     band energies (ev):

   -45.9360 -22.2691 -22.1752 -22.1542 -13.9434  -6.4187  -5.6600  -5.6124
     0.7824   0.9581   1.0400   6.5428   7.2300   7.6798   7.7922   8.1916
     8.9132   9.3868   9.4199   9.7290

          k = 0.2000 0.1111 0.3908     band energies (ev):

   -45.9359 -22.2686 -22.1753 -22.1610 -13.9330  -6.3605  -5.6535  -5.6163
     0.6819   0.8656   1.0988   6.5369   7.1659   7.6235   7.7937   8.1381
     8.9223   9.2705   9.5266   9.6896

          k = 0.2000 0.2222 0.3908     band energies (ev):

   -45.9356 -22.2677 -22.1786 -22.1745 -13.9064  -6.2113  -5.6700  -5.5925
     0.5215   0.7165   1.0724   6.5208   7.0129   7.5028   7.6773   8.1107
     8.4960   9.5538   9.6232   9.7041

          k = 0.2000 0.3333 0.3908     band energies (ev):

   -45.9351 -22.2666 -22.1981 -22.1738 -13.8757  -6.0444  -5.6900  -5.5563
     0.4361   0.5621   0.9387   6.4522   6.8500   7.1866   7.6556   8.0276
     8.2855   9.5618   9.7326  10.0064

          k = 0.2000 0.4444 0.3908     band energies (ev):

   -45.9349 -22.2658 -22.2107 -22.1734 -13.8553  -5.9537  -5.6725  -5.5415
     0.4402   0.4663   0.7928   6.2797   6.7658   7.0785   7.6273   7.9976
     8.1658   9.6276   9.7954  10.1539

          k = 0.2000 0.5556 0.3908     band energies (ev):

   -45.9349 -22.2658 -22.2107 -22.1734 -13.8553  -5.9537  -5.6725  -5.5415
     0.4402   0.4663   0.7928   6.2797   6.7658   7.0785   7.6273   7.9976
     8.1658   9.6276   9.7954  10.1539

          k = 0.2000 0.6667 0.3908     band energies (ev):

   -45.9351 -22.2666 -22.1981 -22.1738 -13.8757  -6.0444  -5.6900  -5.5563
     0.4361   0.5621   0.9387   6.4522   6.8500   7.1866   7.6556   8.0276
     8.2855   9.5618   9.7326  10.0064

          k = 0.2000 0.7778 0.3908     band energies (ev):

   -45.9356 -22.2677 -22.1786 -22.1745 -13.9064  -6.2113  -5.6700  -5.5925
     0.5215   0.7165   1.0724   6.5208   7.0129   7.5028   7.6773   8.1107
     8.4960   9.5538   9.6232   9.7041

          k = 0.2000 0.8889 0.3908     band energies (ev):

   -45.9359 -22.2686 -22.1753 -22.1610 -13.9330  -6.3605  -5.6535  -5.6163
     0.6819   0.8656   1.0988   6.5369   7.1659   7.6235   7.7937   8.1381
     8.9223   9.2705   9.5266   9.6896

          k = 0.2000 1.0000 0.3908     band energies (ev):

   -45.9360 -22.2691 -22.1752 -22.1542 -13.9434  -6.4187  -5.6600  -5.6124
     0.7824   0.9581   1.0400   6.5428   7.2300   7.6798   7.7922   8.1916
     8.9132   9.3868   9.4199   9.7290

          k = 0.4000 0.0000 0.0000     band energies (ev):

   -45.9362 -22.2259 -22.2107 -22.1549 -13.9569  -6.6086  -5.7219  -5.4158
     0.8632   0.9177   1.1046   6.6057   7.7636   7.7661   8.2365   8.5783
     8.6057   8.8742   9.3816   9.5782

          k = 0.4000 0.1111 0.0000     band energies (ev):

   -45.9361 -22.2256 -22.2103 -22.1617 -13.9462  -6.5544  -5.7054  -5.4417
     0.8416   0.9047   1.0719   6.5775   7.6853   7.7618   7.9328   8.3061
     8.7411   8.9923   9.4271   9.6657

          k = 0.4000 0.2222 0.0000     band energies (ev):

   -45.9356 -22.2249 -22.2088 -22.1788 -13.9188  -6.4156  -5.6647  -5.5047
     0.7390   0.9255   0.9949   6.5140   7.2514   7.4511   7.7494   8.1481
     8.6914   9.1123   9.4895   9.9371

          k = 0.4000 0.3333 0.0000     band energies (ev):

   -45.9352 -22.2241 -22.2080 -22.1983 -13.8872  -6.2582  -5.6250  -5.5638
     0.6548   0.8105   1.0339   6.4089   6.8293   6.9389   7.7427   7.8984
     8.7730   9.2590   9.4439  10.2518

          k = 0.4000 0.4444 0.0000     band energies (ev):

   -45.9350 -22.2237 -22.2111 -22.2075 -13.8663  -6.1605  -5.6115  -5.5813
     0.6347   0.6950   1.0767   6.2481   6.5700   6.7303   7.7042   7.7658
     8.7446   9.3952   9.5017  10.3874

          k = 0.4000 0.5556 0.0000     band energies (ev):

   -45.9350 -22.2237 -22.2111 -22.2075 -13.8663  -6.1605  -5.6115  -5.5813
     0.6347   0.6950   1.0767   6.2481   6.5700   6.7303   7.7042   7.7658
     8.7446   9.3952   9.5017  10.3874

          k = 0.4000 0.6667 0.0000     band energies (ev):

   -45.9352 -22.2241 -22.2080 -22.1983 -13.8872  -6.2582  -5.6250  -5.5638
     0.6548   0.8105   1.0339   6.4089   6.8293   6.9389   7.7427   7.8984
     8.7730   9.2590   9.4439  10.2518

          k = 0.4000 0.7778 0.0000     band energies (ev):

   -45.9356 -22.2249 -22.2088 -22.1788 -13.9188  -6.4156  -5.6647  -5.5047
     0.7390   0.9255   0.9949   6.5140   7.2514   7.4511   7.7494   8.1481
     8.6914   9.1123   9.4895   9.9371

          k = 0.4000 0.8889 0.0000     band energies (ev):

   -45.9361 -22.2256 -22.2103 -22.1617 -13.9462  -6.5544  -5.7054  -5.4417
     0.8416   0.9047   1.0719   6.5775   7.6853   7.7618   7.9328   8.3061
     8.7411   8.9923   9.4271   9.6657

          k = 0.4000 1.0000 0.0000     band energies (ev):

   -45.9362 -22.2259 -22.2107 -22.1549 -13.9569  -6.6086  -5.7219  -5.4158
     0.8632   0.9177   1.1046   6.6057   7.7636   7.7661   8.2365   8.5783
     8.6057   8.8742   9.3816   9.5782

          k = 0.4000 0.0000 0.1954     band energies (ev):

   -45.9358 -22.2415 -22.2096 -22.1541 -13.9313  -6.4489  -5.7137  -5.4886
     0.7893   0.9835   0.9953   6.5396   7.2823   7.5673   7.7424   8.3081
     8.9200   9.1607   9.2401   9.7186

          k = 0.4000 0.1111 0.1954     band energies (ev):

   -45.9357 -22.2412 -22.2092 -22.1611 -13.9211  -6.3934  -5.6945  -5.4992
     0.7050   0.8264   1.0891   6.5171   7.2399   7.5628   7.7741   8.1478
     8.6990   9.2894   9.3969   9.6962

          k = 0.4000 0.2222 0.1954     band energies (ev):

   -45.9354 -22.2405 -22.2082 -22.1784 -13.8950  -6.2517  -5.6446  -5.5255
     0.5391   0.6586   1.0558   6.4722   7.1265   7.4742   7.6463   8.0471
     8.3457   9.4149   9.5756   9.8653

          k = 0.4000 0.3333 0.1954     band energies (ev):

   -45.9349 -22.2397 -22.2069 -22.1977 -13.8650  -6.0919  -5.5862  -5.5503
     0.4357   0.4962   0.9175   6.3981   6.9227   7.1085   7.6838   7.9963
     8.1918   9.4697   9.6429  10.2004

          k = 0.4000 0.4444 0.1954     band energies (ev):

   -45.9346 -22.2389 -22.2101 -22.2062 -13.8451  -5.9936  -5.5613  -5.5440
     0.3924   0.4261   0.7751   6.2391   6.7347   7.0565   7.7054   7.9444
     8.0927   9.5821   9.6758  10.3668

          k = 0.4000 0.5556 0.1954     band energies (ev):

   -45.9346 -22.2389 -22.2101 -22.2062 -13.8451  -5.9936  -5.5613  -5.5440
     0.3924   0.4261   0.7751   6.2391   6.7347   7.0565   7.7054   7.9444
     8.0927   9.5821   9.6758  10.3668

          k = 0.4000 0.6667 0.1954     band energies (ev):

   -45.9349 -22.2397 -22.2069 -22.1977 -13.8650  -6.0919  -5.5862  -5.5503
     0.4357   0.4962   0.9175   6.3981   6.9227   7.1085   7.6838   7.9963
     8.1918   9.4697   9.6429  10.2004

          k = 0.4000 0.7778 0.1954     band energies (ev):

   -45.9354 -22.2405 -22.2082 -22.1784 -13.8950  -6.2517  -5.6446  -5.5255
     0.5391   0.6586   1.0558   6.4722   7.1265   7.4742   7.6463   8.0471
     8.3457   9.4149   9.5756   9.8653

          k = 0.4000 0.8889 0.1954     band energies (ev):

   -45.9357 -22.2412 -22.2092 -22.1611 -13.9211  -6.3934  -5.6945  -5.4992
     0.7050   0.8264   1.0891   6.5171   7.2399   7.5628   7.7741   8.1478
     8.6990   9.2894   9.3969   9.6962

          k = 0.4000 1.0000 0.1954     band energies (ev):

   -45.9358 -22.2415 -22.2096 -22.1541 -13.9313  -6.4489  -5.7137  -5.4886
     0.7893   0.9835   0.9953   6.5396   7.2823   7.5673   7.7424   8.3081
     8.9200   9.1607   9.2401   9.7186

          k = 0.4000 0.0000 0.3908     band energies (ev):

   -45.9353 -22.2669 -22.2082 -22.1529 -13.8891  -6.1578  -5.7433  -5.5849
     0.7006   0.8139   1.0956   6.3662   6.5613   6.8850   7.6914   7.9057
     8.8828   9.3305   9.5258  10.1551

          k = 0.4000 0.1111 0.3908     band energies (ev):

   -45.9352 -22.2667 -22.2078 -22.1600 -13.8798  -6.0969  -5.7237  -5.5713
     0.6130   0.6849   1.0187   6.3604   6.6798   6.9177   7.7343   7.9389
     8.5685   9.4310   9.6114  10.1399

          k = 0.4000 0.2222 0.3908     band energies (ev):

   -45.9349 -22.2660 -22.2068 -22.1775 -13.8559  -5.9419  -5.6701  -5.5361
     0.3794   0.4458   0.7879   6.3410   6.7938   7.1637   7.5662   8.0090
     8.1659   9.6502   9.8339  10.1077

          k = 0.4000 0.3333 0.3908     band energies (ev):

   -45.9344 -22.2651 -22.2055 -22.1964 -13.8285  -5.7739  -5.5916  -5.4950
     0.1560   0.2226   0.4921   6.2719   6.8134   6.9849   7.6061   8.0653
     8.1070   9.9132  10.0618  10.1449

          k = 0.4000 0.4444 0.3908     band energies (ev):

   -45.9341 -22.2644 -22.2088 -22.2048 -13.8104  -5.6856  -5.5111  -5.4695
     0.0602   0.0869   0.2665   6.1234   6.7328   6.8288   7.8174   8.0936
     8.1159  10.0415  10.1154  10.3356

          k = 0.4000 0.5556 0.3908     band energies (ev):

   -45.9341 -22.2644 -22.2088 -22.2048 -13.8104  -5.6856  -5.5111  -5.4695
     0.0602   0.0869   0.2665   6.1234   6.7328   6.8288   7.8174   8.0936
     8.1159  10.0415  10.1154  10.3356

          k = 0.4000 0.6667 0.3908     band energies (ev):

   -45.9344 -22.2651 -22.2055 -22.1964 -13.8285  -5.7739  -5.5916  -5.4950
     0.1560   0.2226   0.4921   6.2719   6.8134   6.9849   7.6061   8.0653
     8.1070   9.9132  10.0618  10.1449

          k = 0.4000 0.7778 0.3908     band energies (ev):

   -45.9349 -22.2660 -22.2068 -22.1775 -13.8559  -5.9419  -5.6701  -5.5361
     0.3794   0.4458   0.7879   6.3410   6.7938   7.1637   7.5662   8.0090
     8.1659   9.6502   9.8339  10.1077

          k = 0.4000 0.8889 0.3908     band energies (ev):

   -45.9352 -22.2667 -22.2078 -22.1600 -13.8798  -6.0969  -5.7237  -5.5713
     0.6130   0.6849   1.0187   6.3604   6.6798   6.9177   7.7343   7.9389
     8.5685   9.4310   9.6114  10.1399

          k = 0.4000 1.0000 0.3908     band energies (ev):

   -45.9353 -22.2669 -22.2082 -22.1529 -13.8891  -6.1578  -5.7433  -5.5849
     0.7006   0.8139   1.0956   6.3662   6.5613   6.8850   7.6914   7.9057
     8.8828   9.3305   9.5258  10.1551



               ==================================================
                            POLARIZATION CALCULATION
                         !!! NOT THOROUGHLY TESTED !!!
               --------------------------------------------------


                     K-POINTS STRINGS USED IN CALCULATIONS
                     ~~~~~~~~~~~~~~~~~~~~~~~~~~~~~~~~~~~~~

       G-vector along string (2 pi/a):  0.00000  1.00000  0.00000
       Modulus of the vector (1/bohr):  0.84106
       Number of k-points per string:  10
       Number of different strings  :   9


                               IONIC POLARIZATION
                               ~~~~~~~~~~~~~~~~~~

        Note: (mod 1) means that the phases (angles ranging from
        -pi to pi) have been mapped to the interval [-1/2,+1/2) by
        dividing by 2*pi; (mod 2) refers to the interval [-1,+1)

  ============================================================================
    Ion    Species    Charge              Position                Phase
  ----------------------------------------------------------------------------
     1        Ba      10.000       0.0000  0.0000  0.0211     0.00000 (mod 2)
     2        Ti      12.000       0.5000  0.5000  0.5428     0.00000 (mod 2)
     3        O        6.000       0.5000  0.5000 -0.0158    -1.00000 (mod 2)
     4        O        6.000       0.5000  0.0000  0.5038     0.00000 (mod 2)
     5        O        6.000       0.0000  0.5000  0.5038    -1.00000 (mod 2)
  ----------------------------------------------------------------------------
                                               IONIC PHASE:   0.00000 (mod 2)
  ============================================================================


                            ELECTRONIC POLARIZATION
                            ~~~~~~~~~~~~~~~~~~~~~~~

        Note: (mod 1) means that the phases (angles ranging from
        -pi to pi) have been mapped to the interval [-1/2,+1/2) by
        dividing by 2*pi; (mod 2) refers to the interval [-1,+1)

  ============================================================================
   Spin    String     Weight      First k-point in string         Phase
  ----------------------------------------------------------------------------
    up        1      0.040000      0.0000  0.0000  0.0000     0.00000 (mod 1)
    up        2      0.080000      0.0000  0.0000  0.1954     0.00000 (mod 1)
    up        3      0.080000      0.0000  0.0000  0.3908     0.00000 (mod 1)
    up        4      0.080000      0.2000  0.0000  0.0000     0.00000 (mod 1)
    up        5      0.160000      0.2000  0.0000  0.1954     0.00000 (mod 1)
    up        6      0.160000      0.2000  0.0000  0.3908     0.00000 (mod 1)
    up        7      0.080000      0.4000  0.0000  0.0000     0.00000 (mod 1)
    up        8      0.160000      0.4000  0.0000  0.1954     0.00000 (mod 1)
    up        9      0.160000      0.4000  0.0000  0.3908     0.00000 (mod 1)
  ----------------------------------------------------------------------------
   down       1      0.040000      0.0000  0.0000  0.0000     0.00000 (mod 1)
   down       2      0.080000      0.0000  0.0000  0.1954     0.00000 (mod 1)
   down       3      0.080000      0.0000  0.0000  0.3908     0.00000 (mod 1)
   down       4      0.080000      0.2000  0.0000  0.0000     0.00000 (mod 1)
   down       5      0.160000      0.2000  0.0000  0.1954     0.00000 (mod 1)
   down       6      0.160000      0.2000  0.0000  0.3908     0.00000 (mod 1)
   down       7      0.080000      0.4000  0.0000  0.0000     0.00000 (mod 1)
   down       8      0.160000      0.4000  0.0000  0.1954     0.00000 (mod 1)
   down       9      0.160000      0.4000  0.0000  0.3908     0.00000 (mod 1)
  ----------------------------------------------------------------------------
                                        Average phase (up):   0.00000 (mod 1)
                                      Average phase (down):   0.00000 (mod 1)
                                          ELECTRONIC PHASE:   0.00000 (mod 2)
  ============================================================================


                               SUMMARY OF PHASES
                               ~~~~~~~~~~~~~~~~~

                          Ionic Phase:  0.00000 (mod 2)
                     Electronic Phase:  0.00000 (mod 2)
                          TOTAL PHASE:  0.00000 (mod 2)


                             VALUES OF POLARIZATION
                             ~~~~~~~~~~~~~~~~~~~~~~

        The calculation of phases done along the direction of vector 2
        of the reciprocal lattice gives the following contribution to
        the polarization vector (in different units, and being Omega
        the volume of the unit cell):

           P =   0.0000000  (mod  14.9411600)  (e/Omega).bohr

           P =   0.0000000  (mod   0.0350116)  e/bohr^2

           P =   0.0000000  (mod   2.0016750)  C/m^2

        The polarization direction is:  ( 0.00000 , 1.00000 , 0.00000 )


               ==================================================



     Writing output data file asymm.save
 
     init_run     :      2.19s CPU      2.23s WALL (       1 calls)
     electrons    :     59.65s CPU     60.15s WALL (       1 calls)

     Called by init_run:
     wfcinit      :      0.00s CPU      0.00s WALL (       1 calls)
     potinit      :      0.08s CPU      0.09s WALL (       1 calls)

     Called by electrons:
     c_bands      :     54.70s CPU     55.15s WALL (       1 calls)
     v_of_rho     :      0.07s CPU      0.07s WALL (       1 calls)
     newd         :      0.29s CPU      0.31s WALL (       1 calls)

     Called by c_bands:
     init_us_2    :      0.34s CPU      0.38s WALL (     252 calls)
     cegterg      :     48.55s CPU     48.76s WALL (      90 calls)

     Called by *egterg:
     h_psi        :     37.00s CPU     37.12s WALL (    1588 calls)
     s_psi        :      2.43s CPU      2.39s WALL (    1588 calls)
     g_psi        :      0.73s CPU      0.71s WALL (    1408 calls)
     cdiaghg      :      3.76s CPU      3.60s WALL (    1498 calls)

     Called by h_psi:
     add_vuspsi   :      2.30s CPU      2.31s WALL (    1588 calls)

     General routines
     calbec       :      3.04s CPU      2.99s WALL (    1750 calls)
     fft          :      0.03s CPU      0.04s WALL (      13 calls)
     ffts         :      0.00s CPU      0.00s WALL (       1 calls)
     fftw         :     27.13s CPU     27.38s WALL (   49960 calls)
     interpolate  :      0.00s CPU      0.00s WALL (       1 calls)
     davcio       :      0.09s CPU      0.26s WALL (     252 calls)
 
 
     PWSCF        :  1m 2.28s CPU     1m 2.92s WALL

 
   This run was terminated on:  11: 6:29  10Jul2014            

=------------------------------------------------------------------------------=
   JOB DONE.
=------------------------------------------------------------------------------=
