
     Program PWSCF v.4.3.2      starts on 10Jul2014 at 10:52:29 

     This program is part of the open-source Quantum ESPRESSO suite
     for quantum simulation of materials; please cite
         "P. Giannozzi et al., J. Phys.:Condens. Matter 21 395502 (2009);
          URL http://www.quantum-espresso.org", 
     in publications or presentations arising from this work. More details at
     http://www.quantum-espresso.org/wiki/index.php/Citing_Quantum-ESPRESSO

     Current dimensions of program PWSCF are:
     Max number of different atomic species (ntypx) = 10
     Max number of k-points (npk) =  40000
     Max angular momentum in pseudopotentials (lmaxx) =  3
     Waiting for input...
     Reading input from stdin
Warning: card   &CELL ignored
Warning: card   / ignored
               file O.pbe-rrkjus.UPF: wavefunction(s)  2S renormalized
 
     G-vector sticks info
     --------------------
     sticks:   dense  smooth     PW     G-vecs:    dense   smooth      PW
     Sum        1085     545    169                27305     9707    1615
 


     bravais-lattice index     =            6
     lattice parameter (alat)  =       7.5438  a.u.
     unit-cell volume          =     434.0319 (a.u.)^3
     number of atoms/cell      =            5
     number of atomic types    =            3
     number of electrons       =        40.00
     number of Kohn-Sham states=           24
     kinetic-energy cutoff     =      30.0000  Ry
     charge density cutoff     =     240.0000  Ry
     convergence threshold     =      1.0E-08
     mixing beta               =       0.7000
     number of iterations used =            8  plain     mixing
     Exchange-correlation      =  SLA  PW   PBE  PBE ( 1 4 3 4 0)
     EXX-fraction              =        0.00
     nstep                     =           50


     celldm(1)=   7.543800  celldm(2)=   0.000000  celldm(3)=   1.011000
     celldm(4)=   0.000000  celldm(5)=   0.000000  celldm(6)=   0.000000

     crystal axes: (cart. coord. in units of alat)
               a(1) = (   1.000000   0.000000   0.000000 )  
               a(2) = (   0.000000   1.000000   0.000000 )  
               a(3) = (   0.000000   0.000000   1.011000 )  

     reciprocal axes: (cart. coord. in units 2 pi/alat)
               b(1) = (  1.000000  0.000000  0.000000 )  
               b(2) = (  0.000000  1.000000  0.000000 )  
               b(3) = (  0.000000  0.000000  0.989120 )  


     PseudoPot. # 1 for Ba read from file:
     ../../pseudo/Ba.pbe-nsp-van.UPF
     MD5 check sum: a011de417d3466d8e94df216395bc359
     Pseudo is Ultrasoft + core correction, Zval = 10.0
     Generated by new atomic code, or converted to UPF format
     Using radial grid of  907 points,  6 beta functions with: 
                l(1) =   0
                l(2) =   0
                l(3) =   1
                l(4) =   1
                l(5) =   2
                l(6) =   2
     Q(r) pseudized with  6 coefficients,  rinner =    1.200   1.200   1.200
                                                       1.200   1.200

     PseudoPot. # 2 for Ti read from file:
     ../../pseudo/Ti.pbe-sp-van_ak.UPF
     MD5 check sum: 8e4df49b7f0d34bbd5052bf3f5ea0213
     Pseudo is Ultrasoft, Zval = 12.0
     Generated by new atomic code, or converted to UPF format
     Using radial grid of  851 points,  6 beta functions with: 
                l(1) =   0
                l(2) =   0
                l(3) =   1
                l(4) =   1
                l(5) =   2
                l(6) =   2
     Q(r) pseudized with  8 coefficients,  rinner =    1.000   1.000   1.000
                                                       1.000   1.000

     PseudoPot. # 3 for O  read from file:
     ../../pseudo/O.pbe-rrkjus.UPF
     MD5 check sum: 390ba29e75625707450f3bd3f0eb6be9
     Pseudo is Ultrasoft, Zval =  6.0
     Generated by new atomic code, or converted to UPF format
     Using radial grid of 1269 points,  4 beta functions with: 
                l(1) =   0
                l(2) =   0
                l(3) =   1
                l(4) =   1
     Q(r) pseudized with 0 coefficients 


     atomic species   valence    mass     pseudopotential
        Ba            10.00   137.34000     Ba( 1.00)
        Ti            12.00    47.90000     Ti( 1.00)
        O              6.00    16.00000     O ( 1.00)

      8 Sym.Ops. (no inversion)


   Cartesian axes

     site n.     atom                  positions (alat units)
         1           Ba  tau(   1) = (   0.0000000   0.0000000   0.0000000  )
         2           Ti  tau(   2) = (   0.5000000   0.5000000   0.5257200  )
         3           O   tau(   3) = (   0.5000000   0.5000000   0.0000000  )
         4           O   tau(   4) = (   0.5000000   0.0000000   0.5055000  )
         5           O   tau(   5) = (   0.0000000   0.5000000   0.5055000  )

     number of k points=    18  Fermi-Dirac smearing, width (Ry)=  0.0030
                       cart. coord. in units 2pi/alat
        k(    1) = (   0.0000000   0.0000000   0.0000000), wk =   0.0160000
        k(    2) = (   0.0000000   0.0000000   0.1978239), wk =   0.0320000
        k(    3) = (   0.0000000   0.0000000   0.3956479), wk =   0.0320000
        k(    4) = (   0.0000000   0.2000000   0.0000000), wk =   0.0640000
        k(    5) = (   0.0000000   0.2000000   0.1978239), wk =   0.1280000
        k(    6) = (   0.0000000   0.2000000   0.3956479), wk =   0.1280000
        k(    7) = (   0.0000000   0.4000000   0.0000000), wk =   0.0640000
        k(    8) = (   0.0000000   0.4000000   0.1978239), wk =   0.1280000
        k(    9) = (   0.0000000   0.4000000   0.3956479), wk =   0.1280000
        k(   10) = (   0.2000000   0.2000000   0.0000000), wk =   0.0640000
        k(   11) = (   0.2000000   0.2000000   0.1978239), wk =   0.1280000
        k(   12) = (   0.2000000   0.2000000   0.3956479), wk =   0.1280000
        k(   13) = (   0.2000000   0.4000000   0.0000000), wk =   0.1280000
        k(   14) = (   0.2000000   0.4000000   0.1978239), wk =   0.2560000
        k(   15) = (   0.2000000   0.4000000   0.3956479), wk =   0.2560000
        k(   16) = (   0.4000000   0.4000000   0.0000000), wk =   0.0640000
        k(   17) = (   0.4000000   0.4000000   0.1978239), wk =   0.1280000
        k(   18) = (   0.4000000   0.4000000   0.3956479), wk =   0.1280000

     Dense  grid:    27305 G-vectors     FFT dimensions: (  40,  40,  40)

     Smooth grid:     9707 G-vectors     FFT dimensions: (  27,  27,  27)

     Largest allocated arrays     est. size (Mb)     dimensions
        Kohn-Sham Wavefunctions         0.45 Mb     (   1225,   24)
        NL pseudopotentials             1.12 Mb     (   1225,   60)
        Each V/rho on FFT grid          0.98 Mb     (  64000)
        Each G-vector array             0.21 Mb     (  27305)
        G-vector shells                 0.01 Mb     (   1730)
     Largest temporary arrays     est. size (Mb)     dimensions
        Auxiliary wavefunctions         1.79 Mb     (   1225,   96)
        Each subspace H/S matrix        0.14 Mb     (  96,  96)
        Each <psi_i|beta_j> matrix      0.02 Mb     (     60,   24)
        Arrays for rho mixing           7.81 Mb     (  64000,   8)

     Check: negative/imaginary core charge=   -0.000001    0.000000

     Initial potential from superposition of free atoms

     starting charge   38.98495, renormalised to   40.00000
     Starting wfc are   35 atomic wfcs

     total cpu time spent up to now is        3.7 secs

     per-process dynamical memory:    30.2 Mb

     Self-consistent Calculation

     iteration #  1     ecut=    30.00 Ry     beta=0.70
     Davidson diagonalization with overlap
     ethr =  1.00E-02,  avg # of iterations =  2.6

     total cpu time spent up to now is        7.0 secs

     total energy              =    -302.84402909 Ry
     Harris-Foulkes estimate   =    -303.46518737 Ry
     estimated scf accuracy    <       0.79929285 Ry

     iteration #  2     ecut=    30.00 Ry     beta=0.70
     Davidson diagonalization with overlap
     ethr =  2.00E-03,  avg # of iterations =  4.1

     total cpu time spent up to now is       11.6 secs

     total energy              =    -301.25556198 Ry
     Harris-Foulkes estimate   =    -304.41844126 Ry
     estimated scf accuracy    <      15.10149858 Ry

     iteration #  3     ecut=    30.00 Ry     beta=0.70
     Davidson diagonalization with overlap
     ethr =  2.00E-03,  avg # of iterations =  4.4

     total cpu time spent up to now is       16.1 secs

     total energy              =    -303.30151636 Ry
     Harris-Foulkes estimate   =    -303.38214763 Ry
     estimated scf accuracy    <       0.27721204 Ry

     iteration #  4     ecut=    30.00 Ry     beta=0.70
     Davidson diagonalization with overlap
     ethr =  6.93E-04,  avg # of iterations =  2.7

     total cpu time spent up to now is       19.5 secs

     total energy              =    -303.28812942 Ry
     Harris-Foulkes estimate   =    -303.31950111 Ry
     estimated scf accuracy    <       0.12504134 Ry

     iteration #  5     ecut=    30.00 Ry     beta=0.70
     Davidson diagonalization with overlap
     ethr =  3.13E-04,  avg # of iterations =  2.9

     total cpu time spent up to now is       22.8 secs

     total energy              =    -303.29701797 Ry
     Harris-Foulkes estimate   =    -303.29953650 Ry
     estimated scf accuracy    <       0.01364389 Ry

     iteration #  6     ecut=    30.00 Ry     beta=0.70
     Davidson diagonalization with overlap
     ethr =  3.41E-05,  avg # of iterations =  4.1

     total cpu time spent up to now is       26.4 secs

     total energy              =    -303.29725690 Ry
     Harris-Foulkes estimate   =    -303.29802385 Ry
     estimated scf accuracy    <       0.00398235 Ry

     iteration #  7     ecut=    30.00 Ry     beta=0.70
     Davidson diagonalization with overlap
     ethr =  9.96E-06,  avg # of iterations =  2.5

     total cpu time spent up to now is       29.7 secs

     total energy              =    -303.29734594 Ry
     Harris-Foulkes estimate   =    -303.29758013 Ry
     estimated scf accuracy    <       0.00074185 Ry

     iteration #  8     ecut=    30.00 Ry     beta=0.70
     Davidson diagonalization with overlap
     ethr =  1.85E-06,  avg # of iterations =  3.4

     total cpu time spent up to now is       33.3 secs

     total energy              =    -303.29748369 Ry
     Harris-Foulkes estimate   =    -303.29748499 Ry
     estimated scf accuracy    <       0.00000395 Ry

     iteration #  9     ecut=    30.00 Ry     beta=0.70
     Davidson diagonalization with overlap
     ethr =  9.88E-09,  avg # of iterations =  3.9

     total cpu time spent up to now is       38.1 secs

     total energy              =    -303.29748650 Ry
     Harris-Foulkes estimate   =    -303.29749084 Ry
     estimated scf accuracy    <       0.00001549 Ry

     iteration # 10     ecut=    30.00 Ry     beta=0.70
     Davidson diagonalization with overlap
     ethr =  9.88E-09,  avg # of iterations =  2.9

     total cpu time spent up to now is       41.8 secs

     total energy              =    -303.29748787 Ry
     Harris-Foulkes estimate   =    -303.29748801 Ry
     estimated scf accuracy    <       0.00000060 Ry

     iteration # 11     ecut=    30.00 Ry     beta=0.70
     Davidson diagonalization with overlap
     ethr =  1.50E-09,  avg # of iterations =  2.1

     total cpu time spent up to now is       45.0 secs

     total energy              =    -303.29748787 Ry
     Harris-Foulkes estimate   =    -303.29748791 Ry
     estimated scf accuracy    <       0.00000011 Ry

     iteration # 12     ecut=    30.00 Ry     beta=0.70
     Davidson diagonalization with overlap
     ethr =  2.82E-10,  avg # of iterations =  2.9

     total cpu time spent up to now is       48.5 secs

     total energy              =    -303.29748790 Ry
     Harris-Foulkes estimate   =    -303.29748790 Ry
     estimated scf accuracy    <       0.00000001 Ry

     iteration # 13     ecut=    30.00 Ry     beta=0.70
     Davidson diagonalization with overlap
     ethr =  3.19E-11,  avg # of iterations =  2.9

     total cpu time spent up to now is       51.9 secs

     End of self-consistent calculation

          k = 0.0000 0.0000 0.0000 (  1221 PWs)   bands (ev):

   -46.3928 -22.6066 -22.5976 -22.5976 -14.3579  -6.5876  -5.9217  -5.9174
     0.4317   0.4616   0.4616   7.8960   7.9106   7.9106   8.9583   8.9583
     8.9689   9.9986  10.0098  10.0098  12.0369  12.1314  12.1314  14.2169

          k = 0.0000 0.0000 0.1978 (  1225 PWs)   bands (ev):

   -46.3925 -22.6229 -22.5971 -22.5971 -14.3192  -6.6306  -5.9151  -5.8681
     0.5156   0.5156   0.5858   7.3192   7.8000   7.8000   8.6691   8.6691
     8.7425   9.2435   9.8151   9.8151  12.0644  12.7325  12.7325  14.2325

          k = 0.0000 0.0000 0.3956 (  1198 PWs)   bands (ev):

   -46.3919 -22.6470 -22.5956 -22.5956 -14.2550  -6.7841  -5.9042  -5.6802
     0.6068   0.6068   0.8299   6.4285   7.5375   7.5375   8.4061   8.4061
     8.4241   8.4271   9.5670   9.5670  12.1110  13.5597  13.5597  14.2334

          k = 0.0000 0.2000 0.0000 (  1211 PWs)   bands (ev):

   -46.3924 -22.6155 -22.6057 -22.5967 -14.3161  -6.6178  -5.9113  -5.8726
     0.4910   0.5214   0.6001   7.3020   7.7932   7.8204   8.5933   8.6406
     8.7765   9.2580   9.7449   9.7947  12.1609  12.7096  12.7170  14.2204

          k = 0.0000 0.2000 0.1978 (  1208 PWs)   bands (ev):

   -46.3920 -22.6214 -22.6147 -22.5960 -14.2822  -6.5802  -5.9038  -5.8681
     0.4440   0.5797   0.7088   7.0414   7.4311   7.7672   7.9996   8.3663
     8.9020   9.0753   9.4736   9.6951  12.6759  12.8024  13.0137  14.6537

          k = 0.0000 0.2000 0.3956 (  1206 PWs)   bands (ev):

   -46.3915 -22.6465 -22.6135 -22.5951 -14.2262  -6.6226  -5.8751  -5.7554
     0.5113   0.6782   0.7272   6.3573   7.0895   7.4030   7.5602   8.1208
     8.7033   9.1307   9.1384   9.5471  12.7541  13.5721  13.6413  14.7686

          k = 0.0000 0.4000 0.0000 (  1213 PWs)   bands (ev):

   -46.3919 -22.6441 -22.6046 -22.5959 -14.2469  -6.7692  -5.8992  -5.6665
     0.5915   0.6227   0.8182   6.3701   7.5251   7.5619   8.2360   8.3604
     8.4383   8.5161   9.4352   9.5045  12.2106  13.5988  13.6051  14.2158

          k = 0.0000 0.4000 0.1978 (  1206 PWs)   bands (ev):

   -46.3915 -22.6433 -22.6199 -22.5950 -14.2211  -6.6165  -5.8786  -5.7365
     0.5079   0.6884   0.7150   6.3020   7.1459   7.3299   7.5788   8.0924
     8.7048   9.0742   9.0907   9.5312  12.7828  13.6115  13.6941  14.7513

          k = 0.0000 0.4000 0.3956 (  1205 PWs)   bands (ev):

   -46.3910 -22.6451 -22.6418 -22.5939 -14.1786  -6.3557  -5.8779  -5.8191
     0.4278   0.5203   0.8001   6.1202   6.4453   6.6043   7.5941   7.7100
     8.6270   9.0995   9.2887   9.9955  13.5803  13.6381  14.0051  15.0346

          k = 0.2000 0.2000 0.0000 (  1209 PWs)   bands (ev):

   -46.3920 -22.6148 -22.6146 -22.6047 -14.2794  -6.5683  -5.8982  -5.8697
     0.4366   0.5545   0.7244   7.0413   7.4338   7.7448   7.9852   8.3521
     8.7900   9.0795   9.5320   9.7231  12.6593  12.8082  13.0273  14.6143

          k = 0.2000 0.2000 0.1978 (  1214 PWs)   bands (ev):

   -46.3918 -22.6207 -22.6141 -22.6140 -14.2491  -6.4884  -5.8798  -5.8746
     0.3850   0.3968   0.8805   6.7800   7.3917   7.4086   8.0360   8.0826
     8.2295   9.3325   9.5099   9.5548  13.0305  13.0901  13.1037  15.5734

          k = 0.2000 0.2000 0.3956 (  1196 PWs)   bands (ev):

   -46.3911 -22.6454 -22.6127 -22.6122 -14.1990  -6.4556  -5.8356  -5.7865
     0.2990   0.4572   0.7887   6.3110   6.9573   7.3221   7.4243   7.9275
     8.3038   9.2679   9.4302   9.4742  13.1609  13.6815  13.7171  15.6317

          k = 0.2000 0.4000 0.0000 (  1204 PWs)   bands (ev):

   -46.3914 -22.6429 -22.6133 -22.6037 -14.2186  -6.6063  -5.8683  -5.7351
     0.4995   0.6622   0.7108   6.3051   7.1438   7.3163   7.5493   8.0669
     8.6622   8.9896   9.2268   9.5768  12.7626  13.6156  13.7005  14.7048

          k = 0.2000 0.4000 0.1978 (  1195 PWs)   bands (ev):

   -46.3910 -22.6421 -22.6189 -22.6122 -14.1943  -6.4491  -5.8368  -5.7642
     0.3094   0.4310   0.7782   6.2596   6.9692   7.3511   7.4043   7.8573
     8.2908   9.2167   9.4167   9.5135  13.1533  13.7328  13.7668  15.5624

          k = 0.2000 0.4000 0.3956 (  1200 PWs)   bands (ev):

   -46.3906 -22.6440 -22.6407 -22.6115 -14.1543  -6.1770  -5.8246  -5.7809
     0.1886   0.2200   0.5527   6.1192   6.5630   6.9103   7.4430   7.7900
     7.9616   9.3851   9.5251   9.9653  13.7835  13.8399  14.0776  16.0744

          k = 0.4000 0.4000 0.0000 (  1204 PWs)   bands (ev):

   -46.3908 -22.6416 -22.6414 -22.6026 -14.1719  -6.3339  -5.8553  -5.8046
     0.3872   0.4848   0.7829   6.1018   6.4475   6.5227   7.5826   7.6679
     8.6011   9.1105   9.3026  10.0634  13.6041  13.6605  14.0464  14.9192

          k = 0.4000 0.4000 0.1978 (  1192 PWs)   bands (ev):

   -46.3904 -22.6407 -22.6403 -22.6176 -14.1501  -6.1679  -5.8044  -5.7723
     0.1772   0.1847   0.5457   6.0980   6.5244   6.8614   7.4751   7.7844
     7.9459   9.3666   9.5091  10.0346  13.8158  13.8476  14.1152  15.9372

          k = 0.4000 0.4000 0.3956 (  1201 PWs)   bands (ev):

   -46.3900 -22.6431 -22.6395 -22.6394 -14.1145  -5.8708  -5.7328  -5.7179
    -0.1457  -0.1151   0.0690   5.9644   6.5304   6.5916   7.5450   7.8435
     7.8867   9.8722   9.9166  10.0118  14.2000  14.2018  14.2389  17.1752

     the Fermi energy is    11.0331 ev

!    total energy              =    -303.29748790 Ry
     Harris-Foulkes estimate   =    -303.29748790 Ry
     estimated scf accuracy    <          9.0E-10 Ry

     The total energy is the sum of the following terms:

     one-electron contribution =     -71.85320165 Ry
     hartree contribution      =      59.71203654 Ry
     xc contribution           =     -84.11531480 Ry
     ewald contribution        =    -207.04100798 Ry
     smearing contrib. (-TS)   =       0.00000000 Ry

     convergence has been achieved in  13 iterations

     Forces acting on atoms (Ry/au):

     atom    1 type  1   force =     0.00000000    0.00000000    0.01021340
     atom    2 type  2   force =     0.00000000    0.00000000    0.00291624
     atom    3 type  3   force =     0.00000000    0.00000000   -0.01823606
     atom    4 type  3   force =     0.00000000    0.00000000    0.00255321
     atom    5 type  3   force =     0.00000000    0.00000000    0.00255321

     Total force =     0.021411     Total SCF correction =     0.000015


     entering subroutine stress ...

          total   stress  (Ry/bohr**3)                   (kbar)     P=  -45.09
  -0.00027822   0.00000000   0.00000000        -40.93      0.00      0.00
   0.00000000  -0.00027822   0.00000000          0.00    -40.93      0.00
   0.00000000   0.00000000  -0.00036303          0.00      0.00    -53.40


     BFGS Geometry Optimization

     number of scf cycles    =   1
     number of bfgs steps    =   0

     energy   new            =    -303.2974879004 Ry

     new trust radius        =       0.0182360628 bohr
     new conv_thr            =       0.0000000100 Ry


ATOMIC_POSITIONS (crystal)
Ba       0.000000000   0.000000000   0.001339150
Ti       0.500000000   0.500000000   0.520382368
O        0.500000000   0.500000000  -0.002391056
O        0.500000000   0.000000000   0.500334769
O        0.000000000   0.500000000   0.500334769



     Writing output data file asymm-relax.save
     NEW-OLD atomic charge density approx. for the potential

     Check: negative/imaginary core charge=   -0.000001    0.000000

     total cpu time spent up to now is       57.8 secs

     per-process dynamical memory:    41.8 Mb

     Self-consistent Calculation

     iteration #  1     ecut=    30.00 Ry     beta=0.70
     Davidson diagonalization with overlap
     ethr =  1.00E-06,  avg # of iterations =  3.4

     total cpu time spent up to now is       62.6 secs

     total energy              =    -303.29788577 Ry
     Harris-Foulkes estimate   =    -303.29793477 Ry
     estimated scf accuracy    <       0.00007652 Ry

     iteration #  2     ecut=    30.00 Ry     beta=0.70
     Davidson diagonalization with overlap
     ethr =  1.91E-07,  avg # of iterations =  2.9

     total cpu time spent up to now is       66.4 secs

     total energy              =    -303.29788431 Ry
     Harris-Foulkes estimate   =    -303.29792353 Ry
     estimated scf accuracy    <       0.00007471 Ry

     iteration #  3     ecut=    30.00 Ry     beta=0.70
     Davidson diagonalization with overlap
     ethr =  1.87E-07,  avg # of iterations =  2.9

     total cpu time spent up to now is       69.9 secs

     total energy              =    -303.29790142 Ry
     Harris-Foulkes estimate   =    -303.29791650 Ry
     estimated scf accuracy    <       0.00004471 Ry

     iteration #  4     ecut=    30.00 Ry     beta=0.70
     Davidson diagonalization with overlap
     ethr =  1.12E-07,  avg # of iterations =  2.9

     total cpu time spent up to now is       73.2 secs

     total energy              =    -303.29790829 Ry
     Harris-Foulkes estimate   =    -303.29790895 Ry
     estimated scf accuracy    <       0.00000131 Ry

     iteration #  5     ecut=    30.00 Ry     beta=0.70
     Davidson diagonalization with overlap
     ethr =  3.29E-09,  avg # of iterations =  3.0

     total cpu time spent up to now is       77.0 secs

     total energy              =    -303.29790863 Ry
     Harris-Foulkes estimate   =    -303.29790893 Ry
     estimated scf accuracy    <       0.00000078 Ry

     iteration #  6     ecut=    30.00 Ry     beta=0.70
     Davidson diagonalization with overlap
     ethr =  1.96E-09,  avg # of iterations =  2.6

     total cpu time spent up to now is       80.4 secs

     End of self-consistent calculation

          k = 0.0000 0.0000 0.0000 (  1221 PWs)   bands (ev):

   -46.3809 -22.5998 -22.5860 -22.5860 -14.3594  -6.5869  -5.9230  -5.9175
     0.4311   0.4598   0.4598   7.8966   7.9139   7.9139   8.9469   8.9469
     8.9720   9.9867  10.0006  10.0006  12.0461  12.1559  12.1559  14.2425

          k = 0.0000 0.0000 0.1978 (  1225 PWs)   bands (ev):

   -46.3807 -22.6161 -22.5855 -22.5855 -14.3207  -6.6279  -5.9109  -5.8759
     0.5138   0.5138   0.5853   7.3168   7.8047   7.8047   8.6556   8.6556
     8.7453   9.2405   9.8127   9.8127  12.0738  12.7513  12.7513  14.2433

          k = 0.0000 0.0000 0.3956 (  1198 PWs)   bands (ev):

   -46.3800 -22.6402 -22.5840 -22.5840 -14.2566  -6.7801  -5.8999  -5.6894
     0.6048   0.6048   0.8296   6.4230   7.5434   7.5434   8.3904   8.3904
     8.4265   8.4307   9.5698   9.5698  12.1205  13.5750  13.5750  14.2441

          k = 0.0000 0.2000 0.0000 (  1211 PWs)   bands (ev):

   -46.3805 -22.6039 -22.5988 -22.5851 -14.3177  -6.6184  -5.9148  -5.8690
     0.4903   0.5197   0.5982   7.3062   7.7949   7.8217   8.5766   8.6360
     8.7822   9.2549   9.7325   9.7889  12.1843  12.7187  12.7305  14.2424

          k = 0.0000 0.2000 0.1978 (  1208 PWs)   bands (ev):

   -46.3802 -22.6146 -22.6031 -22.5844 -14.2838  -6.5785  -5.9074  -5.8669
     0.4425   0.5779   0.7075   7.0443   7.4307   7.7705   7.9911   8.3578
     8.9018   9.0759   9.4687   9.6918  12.6887  12.8172  13.0277  14.6673

          k = 0.0000 0.2000 0.3956 (  1206 PWs)   bands (ev):

   -46.3797 -22.6397 -22.6019 -22.5835 -14.2278  -6.6188  -5.8712  -5.7640
     0.5091   0.6762   0.7266   6.3534   7.0936   7.3978   7.5667   8.1062
     8.7059   9.1335   9.1405   9.5427  12.7634  13.5875  13.6545  14.7799

          k = 0.0000 0.4000 0.0000 (  1213 PWs)   bands (ev):

   -46.3800 -22.6326 -22.5977 -22.5843 -14.2484  -6.7708  -5.9023  -5.6624
     0.5908   0.6211   0.8160   6.3745   7.5280   7.5593   8.2098   8.3636
     8.4408   8.5332   9.4207   9.4951  12.2330  13.6078  13.6168  14.2365

          k = 0.0000 0.4000 0.1978 (  1206 PWs)   bands (ev):

   -46.3796 -22.6317 -22.6131 -22.5834 -14.2227  -6.6169  -5.8827  -5.7324
     0.5069   0.6867   0.7128   6.3068   7.1413   7.3275   7.5752   8.0949
     8.7067   9.0664   9.0887   9.5287  12.8007  13.6206  13.7062  14.7671

          k = 0.0000 0.4000 0.3956 (  1205 PWs)   bands (ev):

   -46.3791 -22.6383 -22.6303 -22.5823 -14.1802  -6.3525  -5.8831  -5.8175
     0.4257   0.5189   0.7984   6.1237   6.4398   6.6041   7.5943   7.7046
     8.6269   9.1020   9.2914   9.9910  13.5948  13.6483  14.0169  15.0470

          k = 0.2000 0.2000 0.0000 (  1209 PWs)   bands (ev):

   -46.3801 -22.6033 -22.6030 -22.5978 -14.2810  -6.5703  -5.8941  -5.8724
     0.4347   0.5538   0.7225   7.0431   7.4397   7.7463   7.9877   8.3450
     8.7677   9.0755   9.5349   9.7229  12.6696  12.8243  13.0370  14.6371

          k = 0.2000 0.2000 0.1978 (  1214 PWs)   bands (ev):

   -46.3799 -22.6139 -22.6026 -22.6024 -14.2507  -6.4880  -5.8850  -5.8705
     0.3831   0.3957   0.8789   6.7817   7.3983   7.4063   8.0308   8.0750
     8.2277   9.3288   9.5077   9.5552  13.0407  13.1050  13.1160  15.5921

          k = 0.2000 0.2000 0.3956 (  1196 PWs)   bands (ev):

   -46.3793 -22.6386 -22.6011 -22.6006 -14.2007  -6.4519  -5.8314  -5.7952
     0.2970   0.4564   0.7866   6.3086   6.9552   7.3295   7.4215   7.9184
     8.3077   9.2720   9.4253   9.4719  13.1701  13.6949  13.7307  15.6420

          k = 0.2000 0.4000 0.0000 (  1204 PWs)   bands (ev):

   -46.3796 -22.6314 -22.6017 -22.5968 -14.2201  -6.6091  -5.8697  -5.7315
     0.4977   0.6615   0.7088   6.3086   7.1478   7.3200   7.5499   8.0592
     8.6508   8.9739   9.2339   9.5791  12.7755  13.6280  13.7098  14.7237

          k = 0.2000 0.4000 0.1978 (  1195 PWs)   bands (ev):

   -46.3792 -22.6306 -22.6121 -22.6007 -14.1959  -6.4508  -5.8396  -5.7603
     0.3082   0.4290   0.7768   6.2634   6.9697   7.3487   7.4084   7.8550
     8.2797   9.2143   9.4146   9.5152  13.1671  13.7439  13.7777  15.5781

          k = 0.2000 0.4000 0.3956 (  1200 PWs)   bands (ev):

   -46.3787 -22.6373 -22.6292 -22.5999 -14.1560  -6.1744  -5.8301  -5.7785
     0.1862   0.2194   0.5508   6.1219   6.5625   6.9056   7.4484   7.7875
     7.9564   9.3860   9.5277   9.9606  13.7966  13.8497  14.0901  16.0861

          k = 0.4000 0.4000 0.0000 (  1204 PWs)   bands (ev):

   -46.3790 -22.6301 -22.6299 -22.5958 -14.1735  -6.3402  -5.8513  -5.8031
     0.3853   0.4829   0.7823   6.1041   6.4510   6.5286   7.5813   7.6655
     8.5931   9.1055   9.2939  10.0668  13.6153  13.6744  14.0561  14.9308

          k = 0.4000 0.4000 0.1978 (  1192 PWs)   bands (ev):

   -46.3786 -22.6291 -22.6288 -22.6108 -14.1517  -6.1735  -5.8004  -5.7715
     0.1753   0.1832   0.5448   6.1006   6.5304   6.8642   7.4739   7.7807
     7.9401   9.3611   9.5017  10.0383  13.8285  13.8612  14.1249  15.9466

          k = 0.4000 0.4000 0.3956 (  1201 PWs)   bands (ev):

   -46.3781 -22.6364 -22.6280 -22.6279 -14.1161  -5.8721  -5.7364  -5.7137
    -0.1477  -0.1162   0.0677   5.9676   6.5363   6.5891   7.5433   7.8428
     7.8813   9.8683   9.9138  10.0132  14.2136  14.2146  14.2489  17.1712

     the Fermi energy is    11.0306 ev

!    total energy              =    -303.29790877 Ry
     Harris-Foulkes estimate   =    -303.29790877 Ry
     estimated scf accuracy    <          6.0E-09 Ry

     The total energy is the sum of the following terms:

     one-electron contribution =     -71.92694100 Ry
     hartree contribution      =      59.75206599 Ry
     xc contribution           =     -84.11783685 Ry
     ewald contribution        =    -207.00519691 Ry
     smearing contrib. (-TS)   =       0.00000000 Ry

     convergence has been achieved in   6 iterations

     Forces acting on atoms (Ry/au):

     atom    1 type  1   force =     0.00000000    0.00000000    0.00896116
     atom    2 type  2   force =     0.00000000    0.00000000    0.00494517
     atom    3 type  3   force =     0.00000000    0.00000000   -0.01510327
     atom    4 type  3   force =     0.00000000    0.00000000    0.00059847
     atom    5 type  3   force =     0.00000000    0.00000000    0.00059847

     Total force =     0.018264     Total SCF correction =     0.000108


     entering subroutine stress ...

          total   stress  (Ry/bohr**3)                   (kbar)     P=  -44.09
  -0.00027704   0.00000000   0.00000000        -40.75      0.00      0.00
   0.00000000  -0.00027704   0.00000000          0.00    -40.75      0.00
   0.00000000   0.00000000  -0.00034515          0.00      0.00    -50.77


     number of scf cycles    =   2
     number of bfgs steps    =   1

     energy   old            =    -303.2974879004 Ry
     energy   new            =    -303.2979087674 Ry

     CASE: energy  _new < energy  _old


     WARNING: bfgs curvature condition failed, Theta= 0.954
     new trust radius        =       0.0200596691 bohr
     new conv_thr            =       0.0000000004 Ry


ATOMIC_POSITIONS (crystal)
Ba       0.000000000   0.000000000   0.002883638
Ti       0.500000000   0.500000000   0.521162692
O        0.500000000   0.500000000  -0.005021218
O        0.500000000   0.000000000   0.500487443
O        0.000000000   0.500000000   0.500487443



     Writing output data file asymm-relax.save
     NEW-OLD atomic charge density approx. for the potential

     Check: negative/imaginary core charge=   -0.000001    0.000000

     total cpu time spent up to now is       86.4 secs

     per-process dynamical memory:    41.8 Mb

     Self-consistent Calculation

     iteration #  1     ecut=    30.00 Ry     beta=0.70
     Davidson diagonalization with overlap
     ethr =  1.00E-06,  avg # of iterations =  3.9

     total cpu time spent up to now is       91.4 secs

     total energy              =    -303.29828195 Ry
     Harris-Foulkes estimate   =    -303.29835598 Ry
     estimated scf accuracy    <       0.00011447 Ry

     iteration #  2     ecut=    30.00 Ry     beta=0.70
     Davidson diagonalization with overlap
     ethr =  2.86E-07,  avg # of iterations =  3.1

     total cpu time spent up to now is       95.2 secs

     total energy              =    -303.29827305 Ry
     Harris-Foulkes estimate   =    -303.29834627 Ry
     estimated scf accuracy    <       0.00015052 Ry

     iteration #  3     ecut=    30.00 Ry     beta=0.70
     Davidson diagonalization with overlap
     ethr =  2.86E-07,  avg # of iterations =  3.0

     total cpu time spent up to now is       98.7 secs

     total energy              =    -303.29830776 Ry
     Harris-Foulkes estimate   =    -303.29832786 Ry
     estimated scf accuracy    <       0.00005986 Ry

     iteration #  4     ecut=    30.00 Ry     beta=0.70
     Davidson diagonalization with overlap
     ethr =  1.50E-07,  avg # of iterations =  2.9

     total cpu time spent up to now is      102.1 secs

     total energy              =    -303.29831684 Ry
     Harris-Foulkes estimate   =    -303.29831778 Ry
     estimated scf accuracy    <       0.00000181 Ry

     iteration #  5     ecut=    30.00 Ry     beta=0.70
     Davidson diagonalization with overlap
     ethr =  4.53E-09,  avg # of iterations =  3.1

     total cpu time spent up to now is      105.9 secs

     total energy              =    -303.29831732 Ry
     Harris-Foulkes estimate   =    -303.29831775 Ry
     estimated scf accuracy    <       0.00000111 Ry

     iteration #  6     ecut=    30.00 Ry     beta=0.70
     Davidson diagonalization with overlap
     ethr =  2.78E-09,  avg # of iterations =  2.6

     total cpu time spent up to now is      109.4 secs

     total energy              =    -303.29831753 Ry
     Harris-Foulkes estimate   =    -303.29831753 Ry
     estimated scf accuracy    <          8.2E-09 Ry

     iteration #  7     ecut=    30.00 Ry     beta=0.70
     Davidson diagonalization with overlap
     ethr =  2.05E-11,  avg # of iterations =  3.1

     total cpu time spent up to now is      113.6 secs

     End of self-consistent calculation

          k = 0.0000 0.0000 0.0000 (  1221 PWs)   bands (ev):

   -46.3651 -22.5910 -22.5704 -22.5704 -14.3618  -6.5858  -5.9302  -5.9110
     0.4303   0.4570   0.4570   7.8971   7.9176   7.9176   8.9305   8.9305
     8.9758   9.9696   9.9882   9.9882  12.0583  12.1918  12.1918  14.2787

          k = 0.0000 0.0000 0.1978 (  1225 PWs)   bands (ev):

   -46.3649 -22.6073 -22.5699 -22.5699 -14.3232  -6.6237  -5.9043  -5.8864
     0.5108   0.5108   0.5845   7.3129   7.8099   7.8099   8.6373   8.6373
     8.7487   9.2363   9.8097   9.8097  12.0861  12.7787  12.7787  14.2583

          k = 0.0000 0.0000 0.3956 (  1198 PWs)   bands (ev):

   -46.3642 -22.6316 -22.5685 -22.5685 -14.2591  -6.7743  -5.8933  -5.7020
     0.6016   0.6016   0.8291   6.4147   7.5500   7.5500   8.3697   8.3697
     8.4295   8.4362   9.5744   9.5744  12.1332  13.5969  13.5969  14.2591

          k = 0.0000 0.2000 0.0000 (  1211 PWs)   bands (ev):

   -46.3647 -22.5901 -22.5883 -22.5695 -14.3201  -6.6193  -5.9194  -5.8632
     0.4893   0.5170   0.5952   7.3116   7.7973   7.8230   8.5548   8.6295
     8.7892   9.2513   9.7151   9.7808  12.2186  12.7306  12.7487  14.2732

          k = 0.0000 0.2000 0.1978 (  1208 PWs)   bands (ev):

   -46.3644 -22.6059 -22.5876 -22.5688 -14.2863  -6.5761  -5.9134  -5.8630
     0.4403   0.5750   0.7056   7.0476   7.4289   7.7736   7.9810   8.3467
     8.9017   9.0770   9.4622   9.6877  12.7057  12.8389  13.0467  14.6862

          k = 0.0000 0.2000 0.3956 (  1206 PWs)   bands (ev):

   -46.3639 -22.6311 -22.5864 -22.5679 -14.2303  -6.6130  -5.8655  -5.7753
     0.5057   0.6732   0.7256   6.3472   7.0948   7.3956   7.5737   8.0871
     8.7095   9.1378   9.1442   9.5370  12.7757  13.6093  13.6722  14.7957

          k = 0.0000 0.4000 0.0000 (  1213 PWs)   bands (ev):

   -46.3642 -22.6171 -22.5889 -22.5687 -14.2509  -6.7728  -5.9058  -5.6564
     0.5896   0.6185   0.8124   6.3815   7.5327   7.5555   8.1775   8.3686
     8.4450   8.5536   9.3996   9.4816  12.2659  13.6192  13.6319  14.2655

          k = 0.0000 0.4000 0.1978 (  1206 PWs)   bands (ev):

   -46.3638 -22.6162 -22.6043 -22.5678 -14.2252  -6.6174  -5.8878  -5.7264
     0.5053   0.6840   0.7095   6.3141   7.1347   7.3251   7.5693   8.0990
     8.7097   9.0554   9.0860   9.5256  12.8269  13.6323  13.7218  14.7892

          k = 0.0000 0.4000 0.3956 (  1205 PWs)   bands (ev):

   -46.3633 -22.6296 -22.6148 -22.5668 -14.1828  -6.3478  -5.8909  -5.8138
     0.4223   0.5167   0.7955   6.1284   6.4318   6.6057   7.5901   7.7004
     8.6280   9.1059   9.2954   9.9850  13.6147  13.6624  14.0323  15.0639

          k = 0.2000 0.2000 0.0000 (  1209 PWs)   bands (ev):

   -46.3643 -22.5893 -22.5875 -22.5875 -14.2834  -6.5732  -5.8878  -5.8755
     0.4319   0.5528   0.7195   7.0455   7.4469   7.7489   7.9913   8.3364
     8.7371   9.0701   9.5389   9.7233  12.6834  12.8459  13.0497  14.6690

          k = 0.2000 0.2000 0.1978 (  1214 PWs)   bands (ev):

   -46.3641 -22.6051 -22.5870 -22.5869 -14.2532  -6.4875  -5.8915  -5.8641
     0.3802   0.3939   0.8764   6.7839   7.4022   7.4060   8.0236   8.0663
     8.2267   9.3233   9.5050   9.5569  13.0540  13.1249  13.1327  15.6179

          k = 0.2000 0.2000 0.3956 (  1196 PWs)   bands (ev):

   -46.3634 -22.6300 -22.5856 -22.5851 -14.2032  -6.4463  -5.8250  -5.8069
     0.2939   0.4552   0.7834   6.3050   6.9497   7.3377   7.4207   7.9082
     8.3138   9.2779   9.4187   9.4692  13.1820  13.7126  13.7493  15.6560

          k = 0.2000 0.4000 0.0000 (  1204 PWs)   bands (ev):

   -46.3637 -22.6159 -22.5881 -22.5860 -14.2226  -6.6130  -5.8710  -5.7261
     0.4948   0.6604   0.7057   6.3143   7.1532   7.3246   7.5523   8.0494
     8.6342   8.9544   9.2426   9.5828  12.7926  13.6438  13.7219  14.7498

          k = 0.2000 0.4000 0.1978 (  1195 PWs)   bands (ev):

   -46.3634 -22.6151 -22.6033 -22.5851 -14.1984  -6.4532  -5.8429  -5.7544
     0.3063   0.4259   0.7745   6.2692   6.9707   7.3443   7.4150   7.8525
     8.2654   9.2112   9.4115   9.5185  13.1856  13.7577  13.7921  15.5997

          k = 0.2000 0.4000 0.3956 (  1200 PWs)   bands (ev):

   -46.3629 -22.6286 -22.6137 -22.5844 -14.1585  -6.1706  -5.8382  -5.7738
     0.1824   0.2183   0.5480   6.1256   6.5620   6.8997   7.4538   7.7842
     7.9524   9.3876   9.5318   9.9544  13.8138  13.8626  14.1061  16.1014

          k = 0.4000 0.4000 0.0000 (  1204 PWs)   bands (ev):

   -46.3632 -22.6146 -22.6144 -22.5870 -14.1760  -6.3489  -5.8455  -5.8005
     0.3825   0.4799   0.7811   6.1079   6.4566   6.5379   7.5800   7.6628
     8.5821   9.0991   9.2821  10.0721  13.6293  13.6923  14.0684  14.9457

          k = 0.4000 0.4000 0.1978 (  1192 PWs)   bands (ev):

   -46.3628 -22.6136 -22.6133 -22.6020 -14.1543  -6.1813  -5.7944  -5.7699
     0.1725   0.1808   0.5433   6.1047   6.5396   6.8688   7.4722   7.7761
     7.9327   9.3537   9.4917  10.0440  13.8446  13.8787  14.1371  15.9579

          k = 0.4000 0.4000 0.3956 (  1201 PWs)   bands (ev):

   -46.3623 -22.6277 -22.6125 -22.6124 -14.1187  -5.8748  -5.7400  -5.7076
    -0.1506  -0.1179   0.0658   5.9720   6.5456   6.5863   7.5411   7.8427
     7.8742   9.8633   9.9096  10.0160  14.2306  14.2306  14.2616  17.1620

     the Fermi energy is    11.0239 ev

!    total energy              =    -303.29831753 Ry
     Harris-Foulkes estimate   =    -303.29831753 Ry
     estimated scf accuracy    <          4.1E-10 Ry

     The total energy is the sum of the following terms:

     one-electron contribution =     -72.02565231 Ry
     hartree contribution      =      59.80615830 Ry
     xc contribution           =     -84.12129164 Ry
     ewald contribution        =    -206.95753189 Ry
     smearing contrib. (-TS)   =       0.00000000 Ry

     convergence has been achieved in   7 iterations

     Forces acting on atoms (Ry/au):

     atom    1 type  1   force =     0.00000000    0.00000000    0.00790401
     atom    2 type  2   force =     0.00000000    0.00000000    0.00670135
     atom    3 type  3   force =     0.00000000    0.00000000   -0.01232503
     atom    4 type  3   force =     0.00000000    0.00000000   -0.00114016
     atom    5 type  3   force =     0.00000000    0.00000000   -0.00114016

     Total force =     0.016183     Total SCF correction =     0.000037


     entering subroutine stress ...

          total   stress  (Ry/bohr**3)                   (kbar)     P=  -42.32
  -0.00027263   0.00000000   0.00000000        -40.11      0.00      0.00
   0.00000000  -0.00027263   0.00000000          0.00    -40.11      0.00
   0.00000000   0.00000000  -0.00031770          0.00      0.00    -46.73


     number of scf cycles    =   3
     number of bfgs steps    =   2

     energy   old            =    -303.2979087674 Ry
     energy   new            =    -303.2983175307 Ry

     CASE: energy  _new < energy  _old

     new trust radius        =       0.0300895036 bohr
     new conv_thr            =       0.0000000004 Ry


ATOMIC_POSITIONS (crystal)
Ba       0.000000000   0.000000000   0.005302227
Ti       0.500000000   0.500000000   0.522784452
O        0.500000000   0.500000000  -0.008966460
O        0.500000000   0.000000000   0.500439890
O        0.000000000   0.500000000   0.500439890



     Writing output data file asymm-relax.save
     NEW-OLD atomic charge density approx. for the potential

     Check: negative/imaginary core charge=   -0.000001    0.000000

     total cpu time spent up to now is      119.5 secs

     per-process dynamical memory:    41.8 Mb

     Self-consistent Calculation

     iteration #  1     ecut=    30.00 Ry     beta=0.70
     Davidson diagonalization with overlap
     ethr =  1.00E-06,  avg # of iterations =  4.1

     total cpu time spent up to now is      125.0 secs

     total energy              =    -303.29875248 Ry
     Harris-Foulkes estimate   =    -303.29894825 Ry
     estimated scf accuracy    <       0.00030142 Ry

     iteration #  2     ecut=    30.00 Ry     beta=0.70
     Davidson diagonalization with overlap
     ethr =  7.54E-07,  avg # of iterations =  3.0

     total cpu time spent up to now is      128.7 secs

     total energy              =    -303.29872249 Ry
     Harris-Foulkes estimate   =    -303.29893119 Ry
     estimated scf accuracy    <       0.00044145 Ry

     iteration #  3     ecut=    30.00 Ry     beta=0.70
     Davidson diagonalization with overlap
     ethr =  7.54E-07,  avg # of iterations =  3.0

     total cpu time spent up to now is      132.3 secs

     total energy              =    -303.29882334 Ry
     Harris-Foulkes estimate   =    -303.29887190 Ry
     estimated scf accuracy    <       0.00014394 Ry

     iteration #  4     ecut=    30.00 Ry     beta=0.70
     Davidson diagonalization with overlap
     ethr =  3.60E-07,  avg # of iterations =  2.9

     total cpu time spent up to now is      135.7 secs

     total energy              =    -303.29884526 Ry
     Harris-Foulkes estimate   =    -303.29884787 Ry
     estimated scf accuracy    <       0.00000508 Ry

     iteration #  5     ecut=    30.00 Ry     beta=0.70
     Davidson diagonalization with overlap
     ethr =  1.27E-08,  avg # of iterations =  3.2

     total cpu time spent up to now is      139.5 secs

     total energy              =    -303.29884657 Ry
     Harris-Foulkes estimate   =    -303.29884767 Ry
     estimated scf accuracy    <       0.00000282 Ry

     iteration #  6     ecut=    30.00 Ry     beta=0.70
     Davidson diagonalization with overlap
     ethr =  7.05E-09,  avg # of iterations =  2.6

     total cpu time spent up to now is      143.0 secs

     total energy              =    -303.29884709 Ry
     Harris-Foulkes estimate   =    -303.29884709 Ry
     estimated scf accuracy    <       0.00000002 Ry

     iteration #  7     ecut=    30.00 Ry     beta=0.70
     Davidson diagonalization with overlap
     ethr =  5.50E-11,  avg # of iterations =  3.2

     total cpu time spent up to now is      147.2 secs

     total energy              =    -303.29884710 Ry
     Harris-Foulkes estimate   =    -303.29884710 Ry
     estimated scf accuracy    <          1.1E-09 Ry

     iteration #  8     ecut=    30.00 Ry     beta=0.70
     Davidson diagonalization with overlap
     ethr =  2.85E-12,  avg # of iterations =  2.1

     total cpu time spent up to now is      150.7 secs

     End of self-consistent calculation

          k = 0.0000 0.0000 0.0000 (  1221 PWs)   bands (ev):

   -46.3351 -22.5748 -22.5409 -22.5409 -14.3663  -6.5844  -5.9427  -5.8984
     0.4292   0.4517   0.4517   7.8975   7.9236   7.9236   8.8978   8.8978
     8.9823   9.9371   9.9666   9.9666  12.0811  12.2614  12.2614  14.3484

          k = 0.0000 0.0000 0.1978 (  1225 PWs)   bands (ev):

   -46.3349 -22.5912 -22.5404 -22.5404 -14.3277  -6.6163  -5.9053  -5.8917
     0.5053   0.5053   0.5836   7.3047   7.8179   7.8179   8.6026   8.6026
     8.7544   9.2283   9.8049   9.8049  12.1092  12.8324  12.8324  14.2873

          k = 0.0000 0.0000 0.3956 (  1198 PWs)   bands (ev):

   -46.3342 -22.6157 -22.5389 -22.5389 -14.2637  -6.7633  -5.8807  -5.7251
     0.5956   0.5956   0.8286   6.3981   7.5601   7.5601   8.3316   8.3316
     8.4342   8.4468   9.5834   9.5834  12.1568  13.6397  13.6397  14.2880

          k = 0.0000 0.2000 0.0000 (  1211 PWs)   bands (ev):

   -46.3347 -22.5739 -22.5589 -22.5400 -14.3247  -6.6213  -5.9273  -5.8517
     0.4876   0.5118   0.5895   7.3208   7.8015   7.8242   8.5144   8.6161
     8.8006   9.2458   9.6835   9.7651  12.2852  12.7527  12.7832  14.3322

          k = 0.0000 0.2000 0.1978 (  1208 PWs)   bands (ev):

   -46.3344 -22.5898 -22.5581 -22.5393 -14.2909  -6.5719  -5.9262  -5.8531
     0.4362   0.5696   0.7020   7.0530   7.4240   7.7776   7.9632   8.3259
     8.9013   9.0790   9.4508   9.6805  12.7358  12.8834  13.0827  14.7226

          k = 0.0000 0.2000 0.3956 (  1206 PWs)   bands (ev):

   -46.3339 -22.6152 -22.5569 -22.5384 -14.2350  -6.6022  -5.8556  -5.7950
     0.4992   0.6673   0.7240   6.3348   7.0922   7.3963   7.5845   8.0520
     8.7159   9.1458   9.1518   9.5266  12.7985  13.6521  13.7059  14.8259

          k = 0.0000 0.4000 0.0000 (  1213 PWs)   bands (ev):

   -46.3342 -22.5877 -22.5728 -22.5392 -14.2555  -6.7770  -5.9115  -5.6451
     0.5876   0.6135   0.8054   6.3951   7.5421   7.5474   8.1225   8.3783
     8.4532   8.5864   9.3593   9.4552  12.3299  13.6400  13.6597  14.3214

          k = 0.0000 0.4000 0.1978 (  1206 PWs)   bands (ev):

   -46.3338 -22.5883 -22.5867 -22.5383 -14.2298  -6.6188  -5.8962  -5.7152
     0.5024   0.6788   0.7029   6.3283   7.1217   7.3216   7.5565   8.1073
     8.7154   9.0350   9.0805   9.5204  12.8780  13.6538  13.7506  14.8317

          k = 0.0000 0.4000 0.3956 (  1205 PWs)   bands (ev):

   -46.3333 -22.6137 -22.5854 -22.5372 -14.1875  -6.3393  -5.9066  -5.8051
     0.4157   0.5129   0.7899   6.1366   6.4166   6.6100   7.5737   7.6994
     8.6312   9.1131   9.3031   9.9741  13.6503  13.6919  14.0609  15.0961

          k = 0.2000 0.2000 0.0000 (  1209 PWs)   bands (ev):

   -46.3343 -22.5729 -22.5582 -22.5580 -14.2880  -6.5791  -5.8803  -5.8759
     0.4267   0.5511   0.7134   7.0494   7.4593   7.7545   7.9979   8.3194
     8.6811   9.0605   9.5447   9.7252  12.7098  12.8864  13.0735  14.7301

          k = 0.2000 0.2000 0.1978 (  1214 PWs)   bands (ev):

   -46.3341 -22.5890 -22.5576 -22.5574 -14.2578  -6.4872  -5.9027  -5.8521
     0.3747   0.3907   0.8716   6.7877   7.3932   7.4187   8.0090   8.0507
     8.2273   9.3118   9.5001   9.5619  13.0782  13.1622  13.1650  15.6673

          k = 0.2000 0.2000 0.3956 (  1196 PWs)   bands (ev):

   -46.3335 -22.6140 -22.5561 -22.5556 -14.2079  -6.4360  -5.8284  -5.8128
     0.2881   0.4528   0.7772   6.2977   6.9363   7.3506   7.4219   7.8910
     8.3258   9.2887   9.4071   9.4643  13.2040  13.7458  13.7848  15.6823

          k = 0.2000 0.4000 0.0000 (  1204 PWs)   bands (ev):

   -46.3338 -22.5865 -22.5719 -22.5566 -14.2272  -6.6207  -5.8728  -5.7159
     0.4893   0.6583   0.6997   6.3253   7.1630   7.3320   7.5589   8.0302
     8.6015   8.9243   9.2551   9.5904  12.8248  13.6726  13.7442  14.7996

          k = 0.2000 0.4000 0.1978 (  1195 PWs)   bands (ev):

   -46.3334 -22.5873 -22.5856 -22.5557 -14.2030  -6.4582  -5.8481  -5.7435
     0.3026   0.4200   0.7702   6.2805   6.9723   7.3358   7.4269   7.8482
     8.2390   9.2059   9.4053   9.5261  13.2203  13.7822  13.8194  15.6409

          k = 0.2000 0.4000 0.3956 (  1200 PWs)   bands (ev):

   -46.3329 -22.6127 -22.5843 -22.5549 -14.1633  -6.1642  -5.8536  -5.7640
     0.1753   0.2162   0.5426   6.1319   6.5616   6.8891   7.4614   7.7768
     7.9492   9.3908   9.5399   9.9430  13.8452  13.8872  14.1359  16.1299

          k = 0.4000 0.4000 0.0000 (  1204 PWs)   bands (ev):

   -46.3332 -22.5851 -22.5850 -22.5708 -14.1806  -6.3655  -5.8347  -5.7953
     0.3773   0.4743   0.7790   6.1153   6.4678   6.5562   7.5769   7.6569
     8.5612   9.0884   9.2612  10.0820  13.6548  13.7254  14.0910  14.9731

          k = 0.4000 0.4000 0.1978 (  1192 PWs)   bands (ev):

   -46.3328 -22.5861 -22.5840 -22.5838 -14.1589  -6.1966  -5.7835  -5.7660
     0.1673   0.1763   0.5406   6.1124   6.5581   6.8777   7.4692   7.7669
     7.9185   9.3409   9.4739  10.0546  13.8740  13.9108  14.1594  15.9780

          k = 0.4000 0.4000 0.3956 (  1201 PWs)   bands (ev):

   -46.3323 -22.6117 -22.5830 -22.5830 -14.1234  -5.8831  -5.7434  -5.6964
    -0.1559  -0.1212   0.0624   5.9796   6.5643   6.5818   7.5362   7.8439
     7.8605   9.8545   9.9008  10.0227  14.2589  14.2616  14.2857  17.1424

     the Fermi energy is    11.2577 ev

!    total energy              =    -303.29884710 Ry
     Harris-Foulkes estimate   =    -303.29884710 Ry
     estimated scf accuracy    <          9.0E-11 Ry

     The total energy is the sum of the following terms:

     one-electron contribution =     -72.21108691 Ry
     hartree contribution      =      59.90769315 Ry
     xc contribution           =     -84.12786028 Ry
     ewald contribution        =    -206.86759307 Ry
     smearing contrib. (-TS)   =       0.00000000 Ry

     convergence has been achieved in   8 iterations

     Forces acting on atoms (Ry/au):

     atom    1 type  1   force =     0.00000000    0.00000000    0.00644440
     atom    2 type  2   force =     0.00000000    0.00000000    0.00785607
     atom    3 type  3   force =     0.00000000    0.00000000   -0.00750969
     atom    4 type  3   force =     0.00000000    0.00000000   -0.00339539
     atom    5 type  3   force =     0.00000000    0.00000000   -0.00339539

     Total force =     0.013517     Total SCF correction =     0.000012


     entering subroutine stress ...

          total   stress  (Ry/bohr**3)                   (kbar)     P=  -39.10
  -0.00026546   0.00000000   0.00000000        -39.05      0.00      0.00
   0.00000000  -0.00026546   0.00000000          0.00    -39.05      0.00
   0.00000000   0.00000000  -0.00026648          0.00      0.00    -39.20


     number of scf cycles    =   4
     number of bfgs steps    =   3

     energy   old            =    -303.2983175307 Ry
     energy   new            =    -303.2988471039 Ry

     CASE: energy  _new < energy  _old

     new trust radius        =       0.0451342554 bohr
     new conv_thr            =       0.0000000005 Ry


ATOMIC_POSITIONS (crystal)
Ba       0.000000000   0.000000000   0.009264912
Ti       0.500000000   0.500000000   0.525839756
O        0.500000000   0.500000000  -0.014884324
O        0.500000000   0.000000000   0.499889828
O        0.000000000   0.500000000   0.499889828



     Writing output data file asymm-relax.save
     NEW-OLD atomic charge density approx. for the potential

     Check: negative/imaginary core charge=   -0.000001    0.000000

     total cpu time spent up to now is      156.6 secs

     per-process dynamical memory:    41.8 Mb

     Self-consistent Calculation

     iteration #  1     ecut=    30.00 Ry     beta=0.70
     Davidson diagonalization with overlap
     ethr =  1.00E-06,  avg # of iterations =  4.9

     total cpu time spent up to now is      162.4 secs

     total energy              =    -303.29905416 Ry
     Harris-Foulkes estimate   =    -303.29959566 Ry
     estimated scf accuracy    <       0.00081968 Ry

     iteration #  2     ecut=    30.00 Ry     beta=0.70
     Davidson diagonalization with overlap
     ethr =  2.05E-06,  avg # of iterations =  3.3

     total cpu time spent up to now is      166.5 secs

     total energy              =    -303.29894824 Ry
     Harris-Foulkes estimate   =    -303.29961317 Ry
     estimated scf accuracy    <       0.00149237 Ry

     iteration #  3     ecut=    30.00 Ry     beta=0.70
     Davidson diagonalization with overlap
     ethr =  2.05E-06,  avg # of iterations =  3.2

     total cpu time spent up to now is      170.3 secs

     total energy              =    -303.29927672 Ry
     Harris-Foulkes estimate   =    -303.29938396 Ry
     estimated scf accuracy    <       0.00031406 Ry

     iteration #  4     ecut=    30.00 Ry     beta=0.70
     Davidson diagonalization with overlap
     ethr =  7.85E-07,  avg # of iterations =  2.9

     total cpu time spent up to now is      173.7 secs

     total energy              =    -303.29932458 Ry
     Harris-Foulkes estimate   =    -303.29933177 Ry
     estimated scf accuracy    <       0.00001417 Ry

     iteration #  5     ecut=    30.00 Ry     beta=0.70
     Davidson diagonalization with overlap
     ethr =  3.54E-08,  avg # of iterations =  3.2

     total cpu time spent up to now is      177.4 secs

     total energy              =    -303.29932807 Ry
     Harris-Foulkes estimate   =    -303.29933082 Ry
     estimated scf accuracy    <       0.00000697 Ry

     iteration #  6     ecut=    30.00 Ry     beta=0.70
     Davidson diagonalization with overlap
     ethr =  1.74E-08,  avg # of iterations =  2.6

     total cpu time spent up to now is      180.9 secs

     total energy              =    -303.29932939 Ry
     Harris-Foulkes estimate   =    -303.29932940 Ry
     estimated scf accuracy    <       0.00000007 Ry

     iteration #  7     ecut=    30.00 Ry     beta=0.70
     Davidson diagonalization with overlap
     ethr =  1.81E-10,  avg # of iterations =  3.0

     total cpu time spent up to now is      184.9 secs

     total energy              =    -303.29932942 Ry
     Harris-Foulkes estimate   =    -303.29932942 Ry
     estimated scf accuracy    <          4.0E-09 Ry

     iteration #  8     ecut=    30.00 Ry     beta=0.70
     Davidson diagonalization with overlap
     ethr =  1.01E-11,  avg # of iterations =  2.1

     total cpu time spent up to now is      188.5 secs

     End of self-consistent calculation

          k = 0.0000 0.0000 0.0000 (  1221 PWs)   bands (ev):

   -46.2775 -22.5460 -22.4838 -22.4838 -14.3750  -6.5839  -5.9645  -5.8739
     0.4282   0.4415   0.4415   7.8973   7.9334   7.9334   8.8279   8.8279
     8.9930   9.8743   9.9323   9.9323  12.1247  12.3975  12.3975  14.4857

          k = 0.0000 0.0000 0.1978 (  1225 PWs)   bands (ev):

   -46.2772 -22.5626 -22.4833 -22.4833 -14.3365  -6.6030  -5.9407  -5.8671
     0.4945   0.4945   0.5828   7.2876   7.8313   7.8313   8.5321   8.5321
     8.7637   9.2128   9.7979   9.7979  12.1534  12.9398  12.9398  14.3441

          k = 0.0000 0.0000 0.3956 (  1198 PWs)   bands (ev):

   -46.2765 -22.5874 -22.4818 -22.4818 -14.2726  -6.7422  -5.8561  -5.7693
     0.5838   0.5838   0.8284   6.3653   7.5769   7.5769   8.2574   8.2574
     8.4418   8.4673   9.6012   9.6012  12.2020  13.7259  13.7259  14.3445

          k = 0.0000 0.2000 0.0000 (  1211 PWs)   bands (ev):

   -46.2770 -22.5450 -22.5018 -22.4829 -14.3334  -6.6277  -5.9409  -5.8287
     0.4852   0.5017   0.5783   7.3374   7.8096   7.8240   8.4356   8.5855
     8.8185   9.2374   9.6285   9.7357  12.4151  12.7954  12.8517  14.4464

          k = 0.0000 0.2000 0.1978 (  1208 PWs)   bands (ev):

   -46.2767 -22.5611 -22.5010 -22.4822 -14.2997  -6.5658  -5.9516  -5.8311
     0.4284   0.5590   0.6955   7.0616   7.4125   7.7811   7.9285   8.2842
     8.8998   9.0826   9.4314   9.6684  12.7876  12.9785  13.1532  14.7934

          k = 0.0000 0.2000 0.3956 (  1206 PWs)   bands (ev):

   -46.2762 -22.5868 -22.4998 -22.4812 -14.2440  -6.5817  -5.8558  -5.8131
     0.4863   0.6558   0.7214   6.3101   7.0806   7.4024   7.6024   7.9840
     8.7276   9.1602   9.1672   9.5084  12.8418  13.7380  13.7722  14.8851

          k = 0.0000 0.4000 0.0000 (  1213 PWs)   bands (ev):

   -46.2765 -22.5439 -22.5308 -22.4821 -14.2643  -6.7870  -5.9205  -5.6238
     0.5840   0.6036   0.7914   6.4220   7.5292   7.5625   8.0273   8.3967
     8.4682   8.6391   9.2831   9.4035  12.4556  13.6786  13.7129  14.4311

          k = 0.0000 0.4000 0.1978 (  1206 PWs)   bands (ev):

   -46.2761 -22.5596 -22.5299 -22.4812 -14.2387  -6.6235  -5.9103  -5.6938
     0.4966   0.6685   0.6901   6.3563   7.0937   7.3176   7.5279   8.1236
     8.7261   8.9966   9.0700   9.5116  12.9800  13.6940  13.8058  14.9151

          k = 0.0000 0.4000 0.3956 (  1205 PWs)   bands (ev):

   -46.2756 -22.5853 -22.5284 -22.4801 -14.1966  -6.3244  -5.9377  -5.7859
     0.4015   0.5061   0.7789   6.1513   6.3877   6.6201   7.5253   7.7105
     8.6386   9.1268   9.3180   9.9536  13.7057  13.7645  14.1162  15.1583

          k = 0.2000 0.2000 0.0000 (  1209 PWs)   bands (ev):

   -46.2767 -22.5441 -22.5012 -22.5010 -14.2967  -6.5929  -5.8872  -5.8530
     0.4169   0.5485   0.7012   7.0553   7.4820   7.7676   8.0084   8.2799
     8.5790   9.0450   9.5497   9.7322  12.7634  12.9650  13.1191  14.8492

          k = 0.2000 0.2000 0.1978 (  1214 PWs)   bands (ev):

   -46.2764 -22.5604 -22.5005 -22.5003 -14.2666  -6.4892  -5.9217  -5.8291
     0.3644   0.3846   0.8622   6.7941   7.3734   7.4411   7.9769   8.0178
     8.2342   9.2881   9.4914   9.5756  13.1230  13.2303  13.2350  15.7645

          k = 0.2000 0.2000 0.3956 (  1196 PWs)   bands (ev):

   -46.2758 -22.5857 -22.4990 -22.4985 -14.2169  -6.4167  -5.8692  -5.7895
     0.2772   0.4481   0.7652   6.2835   6.9057   7.3725   7.4273   7.8573
     8.3494   9.3059   9.3892   9.4558  13.2457  13.8107  13.8552  15.7331

          k = 0.2000 0.4000 0.0000 (  1204 PWs)   bands (ev):

   -46.2761 -22.5430 -22.5296 -22.4996 -14.2360  -6.6377  -5.8749  -5.6962
     0.4785   0.6535   0.6890   6.3465   7.1802   7.3448   7.5747   7.9889
     8.5333   8.8847   9.2695   9.6059  12.8878  13.7272  13.7869  14.8961

          k = 0.2000 0.4000 0.1978 (  1195 PWs)   bands (ev):

   -46.2757 -22.5586 -22.5287 -22.4986 -14.2119  -6.4705  -5.8558  -5.7226
     0.2953   0.4087   0.7621   6.3021   6.9733   7.3212   7.4466   7.8406
     8.1875   9.1975   9.3926   9.5433  13.2880  13.8266  13.8736  15.7213

          k = 0.2000 0.4000 0.3956 (  1200 PWs)   bands (ev):

   -46.2752 -22.5843 -22.5273 -22.4978 -14.1723  -6.1552  -5.8816  -5.7437
     0.1617   0.2117   0.5329   6.1426   6.5623   6.8678   7.4704   7.7580
     7.9522   9.3973   9.5563   9.9218  13.9007  13.9395  14.1932  16.1837

          k = 0.4000 0.4000 0.0000 (  1204 PWs)   bands (ev):

   -46.2755 -22.5420 -22.5282 -22.5280 -14.1895  -6.3989  -5.8144  -5.7843
     0.3678   0.4635   0.7746   6.1288   6.4908   6.5930   7.5681   7.6412
     8.5217   9.0721   9.2246  10.1007  13.7026  13.7883  14.1338  15.0245

          k = 0.4000 0.4000 0.1978 (  1192 PWs)   bands (ev):

   -46.2751 -22.5573 -22.5272 -22.5269 -14.1679  -6.2284  -5.7629  -5.7568
     0.1578   0.1676   0.5355   6.1263   6.5951   6.8954   7.4647   7.7453
     7.8893   9.3194   9.4427  10.0744  13.9301  13.9721  14.2015  16.0142

          k = 0.4000 0.4000 0.3956 (  1201 PWs)   bands (ev):

   -46.2746 -22.5832 -22.5261 -22.5260 -14.1324  -5.9092  -5.7403  -5.6753
    -0.1655  -0.1283   0.0568   5.9928   6.5753   6.6016   7.5222   7.8314
     7.8496   9.8390   9.8822  10.0379  14.3076  14.3207  14.3362  17.1038

     the Fermi energy is    11.2281 ev

!    total energy              =    -303.29932942 Ry
     Harris-Foulkes estimate   =    -303.29932942 Ry
     estimated scf accuracy    <          4.4E-10 Ry

     The total energy is the sum of the following terms:

     one-electron contribution =     -72.57827596 Ry
     hartree contribution      =      60.10834101 Ry
     xc contribution           =     -84.14099443 Ry
     ewald contribution        =    -206.68840004 Ry
     smearing contrib. (-TS)   =       0.00000000 Ry

     convergence has been achieved in   8 iterations

     Forces acting on atoms (Ry/au):

     atom    1 type  1   force =     0.00000000    0.00000000    0.00427241
     atom    2 type  2   force =     0.00000000    0.00000000    0.00521433
     atom    3 type  3   force =     0.00000000    0.00000000    0.00298348
     atom    4 type  3   force =     0.00000000    0.00000000   -0.00623511
     atom    5 type  3   force =     0.00000000    0.00000000   -0.00623511

     Total force =     0.011493     Total SCF correction =     0.000019


     entering subroutine stress ...

          total   stress  (Ry/bohr**3)                   (kbar)     P=  -32.48
  -0.00025079   0.00000000   0.00000000        -36.89      0.00      0.00
   0.00000000  -0.00025079   0.00000000          0.00    -36.89      0.00
   0.00000000   0.00000000  -0.00016075          0.00      0.00    -23.65


     number of scf cycles    =   5
     number of bfgs steps    =   4

     energy   old            =    -303.2988471039 Ry
     energy   new            =    -303.2993294178 Ry

     CASE: energy  _new < energy  _old

     new trust radius        =       0.0158788266 bohr
     new conv_thr            =       0.0000000005 Ry


ATOMIC_POSITIONS (crystal)
Ba       0.000000000   0.000000000   0.011346895
Ti       0.500000000   0.500000000   0.527348812
O        0.500000000   0.500000000  -0.016665940
O        0.500000000   0.000000000   0.498985116
O        0.000000000   0.500000000   0.498985116



     Writing output data file asymm-relax.save
     NEW-OLD atomic charge density approx. for the potential

     Check: negative/imaginary core charge=   -0.000001    0.000000

     total cpu time spent up to now is      194.5 secs

     per-process dynamical memory:    41.8 Mb

     Self-consistent Calculation

     iteration #  1     ecut=    30.00 Ry     beta=0.70
     Davidson diagonalization with overlap
     ethr =  1.00E-06,  avg # of iterations =  4.1

     total cpu time spent up to now is      199.9 secs

     total energy              =    -303.29942182 Ry
     Harris-Foulkes estimate   =    -303.29949219 Ry
     estimated scf accuracy    <       0.00011039 Ry

     iteration #  2     ecut=    30.00 Ry     beta=0.70
     Davidson diagonalization with overlap
     ethr =  2.76E-07,  avg # of iterations =  3.0

     total cpu time spent up to now is      203.7 secs

     total energy              =    -303.29940349 Ry
     Harris-Foulkes estimate   =    -303.29949937 Ry
     estimated scf accuracy    <       0.00022289 Ry

     iteration #  3     ecut=    30.00 Ry     beta=0.70
     Davidson diagonalization with overlap
     ethr =  2.76E-07,  avg # of iterations =  2.9

     total cpu time spent up to now is      207.4 secs

     total energy              =    -303.29945232 Ry
     Harris-Foulkes estimate   =    -303.29946468 Ry
     estimated scf accuracy    <       0.00003688 Ry

     iteration #  4     ecut=    30.00 Ry     beta=0.70
     Davidson diagonalization with overlap
     ethr =  9.22E-08,  avg # of iterations =  2.9

     total cpu time spent up to now is      210.9 secs

     total energy              =    -303.29945767 Ry
     Harris-Foulkes estimate   =    -303.29945887 Ry
     estimated scf accuracy    <       0.00000243 Ry

     iteration #  5     ecut=    30.00 Ry     beta=0.70
     Davidson diagonalization with overlap
     ethr =  6.07E-09,  avg # of iterations =  3.0

     total cpu time spent up to now is      214.7 secs

     total energy              =    -303.29945826 Ry
     Harris-Foulkes estimate   =    -303.29945859 Ry
     estimated scf accuracy    <       0.00000082 Ry

     iteration #  6     ecut=    30.00 Ry     beta=0.70
     Davidson diagonalization with overlap
     ethr =  2.06E-09,  avg # of iterations =  2.7

     total cpu time spent up to now is      218.2 secs

     total energy              =    -303.29945843 Ry
     Harris-Foulkes estimate   =    -303.29945843 Ry
     estimated scf accuracy    <       0.00000001 Ry

     iteration #  7     ecut=    30.00 Ry     beta=0.70
     Davidson diagonalization with overlap
     ethr =  3.19E-11,  avg # of iterations =  3.1

     total cpu time spent up to now is      222.2 secs

     End of self-consistent calculation

          k = 0.0000 0.0000 0.0000 (  1221 PWs)   bands (ev):

   -46.2539 -22.5350 -22.4604 -22.4604 -14.3778  -6.5850  -5.9730  -5.8636
     0.4292   0.4379   0.4379   7.8966   7.9364   7.9364   8.7935   8.7935
     8.9947   9.8454   9.9176   9.9176  12.1426  12.4609  12.4609  14.5465

          k = 0.0000 0.0000 0.1978 (  1225 PWs)   bands (ev):

   -46.2537 -22.5517 -22.4599 -22.4599 -14.3393  -6.5981  -5.9555  -5.8568
     0.4906   0.4906   0.5837   7.2791   7.8349   7.8349   8.4995   8.4995
     8.7650   9.2053   9.7943   9.7943  12.1716  12.9901  12.9901  14.3688

          k = 0.0000 0.0000 0.3956 (  1198 PWs)   bands (ev):

   -46.2530 -22.5766 -22.4584 -22.4584 -14.2754  -6.7334  -5.8457  -5.7885
     0.5795   0.5795   0.8294   6.3499   7.5815   7.5815   8.2243   8.2243
     8.4425   8.4761   9.6087   9.6087  12.2207  13.7654  13.7654  14.3690

          k = 0.0000 0.2000 0.0000 (  1211 PWs)   bands (ev):

   -46.2535 -22.5341 -22.4784 -22.4594 -14.3361  -6.6318  -5.9461  -5.8193
     0.4856   0.4981   0.5741   7.3431   7.8128   7.8231   8.4031   8.5687
     8.8209   9.2339   9.6039   9.7230  12.4756  12.8127  12.8810  14.4962

          k = 0.0000 0.2000 0.1978 (  1208 PWs)   bands (ev):

   -46.2532 -22.5502 -22.4776 -22.4587 -14.3025  -6.5644  -5.9622  -5.8217
     0.4260   0.5552   0.6936   7.0643   7.4041   7.7804   7.9157   8.2646
     8.8982   9.0820   9.4222   9.6637  12.8073  13.0247  13.1832  14.8240

          k = 0.0000 0.2000 0.3956 (  1206 PWs)   bands (ev):

   -46.2527 -22.5761 -22.4764 -22.4578 -14.2468  -6.5733  -5.8691  -5.8083
     0.4817   0.6516   0.7211   6.2984   7.0697   7.4104   7.6073   7.9541
     8.7308   9.1655   9.1739   9.5008  12.8591  13.7775  13.7997  14.9106

          k = 0.0000 0.4000 0.0000 (  1213 PWs)   bands (ev):

   -46.2530 -22.5330 -22.5074 -22.4587 -14.2670  -6.7924  -5.9238  -5.6158
     0.5835   0.6001   0.7863   6.4342   7.5211   7.5722   7.9939   8.4040
     8.4720   8.6562   9.2456   9.3797  12.5154  13.6922  13.7341  14.4795

          k = 0.0000 0.4000 0.1978 (  1206 PWs)   bands (ev):

   -46.2526 -22.5487 -22.5065 -22.4577 -14.2415  -6.6269  -5.9156  -5.6857
     0.4949   0.6648   0.6856   6.3687   7.0808   7.3187   7.5140   8.1304
     8.7298   8.9773   9.0641   9.5072  13.0283  13.7087  13.8276  14.9515

          k = 0.0000 0.4000 0.3956 (  1205 PWs)   bands (ev):

   -46.2521 -22.5745 -22.5050 -22.4566 -14.1995  -6.3192  -5.9510  -5.7782
     0.3960   0.5042   0.7749   6.1562   6.3746   6.6283   7.4989   7.7178
     8.6416   9.1318   9.3236   9.9441  13.7240  13.8014  14.1377  15.1842

          k = 0.2000 0.2000 0.0000 (  1209 PWs)   bands (ev):

   -46.2532 -22.5331 -22.4778 -22.4776 -14.2995  -6.6001  -5.8897  -5.8438
     0.4136   0.5483   0.6968   7.0570   7.4897   7.7751   8.0107   8.2621
     8.5351   9.0371   9.5502   9.7366  12.7865  12.9973  13.1380  14.9008

          k = 0.2000 0.2000 0.1978 (  1214 PWs)   bands (ev):

   -46.2529 -22.5495 -22.4771 -22.4769 -14.2694  -6.4916  -5.9290  -5.8198
     0.3610   0.3827   0.8591   6.7963   7.3622   7.4479   7.9636   8.0043
     8.2384   9.2755   9.4872   9.5833  13.1399  13.2595  13.2649  15.8056

          k = 0.2000 0.2000 0.3956 (  1196 PWs)   bands (ev):

   -46.2523 -22.5749 -22.4756 -22.4751 -14.2198  -6.4091  -5.8867  -5.7801
     0.2735   0.4465   0.7611   6.2767   6.8877   7.3785   7.4339   7.8445
     8.3599   9.3094   9.3842   9.4517  13.2619  13.8371  13.8853  15.7538

          k = 0.2000 0.4000 0.0000 (  1204 PWs)   bands (ev):

   -46.2526 -22.5321 -22.5062 -22.4762 -14.2388  -6.6462  -5.8755  -5.6888
     0.4747   0.6512   0.6868   6.3558   7.1867   7.3509   7.5813   7.9744
     8.4998   8.8698   9.2741   9.6126  12.9141  13.7478  13.8037  14.9367

          k = 0.2000 0.4000 0.1978 (  1195 PWs)   bands (ev):

   -46.2522 -22.5477 -22.5053 -22.4752 -14.2147  -6.4773  -5.8585  -5.7148
     0.2927   0.4050   0.7597   6.3112   6.9733   7.3166   7.4526   7.8389
     8.1660   9.1941   9.3851   9.5511  13.3162  13.8427  13.8954  15.7549

          k = 0.2000 0.4000 0.3956 (  1200 PWs)   bands (ev):

   -46.2517 -22.5735 -22.5039 -22.4744 -14.1752  -6.1535  -5.8927  -5.7359
     0.1569   0.2098   0.5302   6.1452   6.5638   6.8603   7.4682   7.7516
     7.9582   9.3996   9.5628   9.9118  13.9196  13.9632  14.2155  16.2041

          k = 0.4000 0.4000 0.0000 (  1204 PWs)   bands (ev):

   -46.2520 -22.5310 -22.5048 -22.5047 -14.1922  -6.4140  -5.8070  -5.7803
     0.3650   0.4599   0.7733   6.1341   6.5016   6.6102   7.5648   7.6349
     8.5068   9.0652   9.2089  10.1076  13.7197  13.8125  14.1504  15.0423

          k = 0.4000 0.4000 0.1978 (  1192 PWs)   bands (ev):

   -46.2516 -22.5464 -22.5038 -22.5035 -14.1706  -6.2431  -5.7555  -5.7533
     0.1551   0.1647   0.5341   6.1313   6.6126   6.9036   7.4642   7.7364
     7.8782   9.3100   9.4292  10.0816  13.9512  13.9955  14.2175  16.0243

          k = 0.4000 0.4000 0.3956 (  1201 PWs)   bands (ev):

   -46.2511 -22.5724 -22.5027 -22.5026 -14.1352  -5.9235  -5.7375  -5.6678
    -0.1681  -0.1311   0.0559   5.9957   6.5755   6.6194   7.5156   7.8194
     7.8546   9.8319   9.8730  10.0437  14.3234  14.3429  14.3573  17.0795

     the Fermi energy is    11.2083 ev

!    total energy              =    -303.29945843 Ry
     Harris-Foulkes estimate   =    -303.29945843 Ry
     estimated scf accuracy    <          3.6E-10 Ry

     The total energy is the sum of the following terms:

     one-electron contribution =     -72.71356758 Ry
     hartree contribution      =      60.18282585 Ry
     xc contribution           =     -84.14645381 Ry
     ewald contribution        =    -206.62226288 Ry
     smearing contrib. (-TS)   =       0.00000000 Ry

     convergence has been achieved in   7 iterations

     Forces acting on atoms (Ry/au):

     atom    1 type  1   force =     0.00000000    0.00000000    0.00348609
     atom    2 type  2   force =     0.00000000    0.00000000    0.00249348
     atom    3 type  3   force =     0.00000000    0.00000000    0.00641539
     atom    4 type  3   force =     0.00000000    0.00000000   -0.00619748
     atom    5 type  3   force =     0.00000000    0.00000000   -0.00619748

     Total force =     0.011677     Total SCF correction =     0.000075


     entering subroutine stress ...

          total   stress  (Ry/bohr**3)                   (kbar)     P=  -29.68
  -0.00024553   0.00000000   0.00000000        -36.12      0.00      0.00
   0.00000000  -0.00024553   0.00000000          0.00    -36.12      0.00
   0.00000000   0.00000000  -0.00011423          0.00      0.00    -16.80


     number of scf cycles    =   6
     number of bfgs steps    =   5

     energy   old            =    -303.2993294178 Ry
     energy   new            =    -303.2994584322 Ry

     CASE: energy  _new < energy  _old

     new trust radius        =       0.0248719603 bohr
     new conv_thr            =       0.0000000001 Ry


ATOMIC_POSITIONS (crystal)
Ba       0.000000000   0.000000000   0.014608029
Ti       0.500000000   0.500000000   0.529264402
O        0.500000000   0.500000000  -0.017500816
O        0.500000000   0.000000000   0.496814193
O        0.000000000   0.500000000   0.496814193



     Writing output data file asymm-relax.save
     NEW-OLD atomic charge density approx. for the potential

     Check: negative/imaginary core charge=   -0.000001    0.000000

     total cpu time spent up to now is      228.2 secs

     per-process dynamical memory:    41.8 Mb

     Self-consistent Calculation

     iteration #  1     ecut=    30.00 Ry     beta=0.70
     Davidson diagonalization with overlap
     ethr =  1.00E-06,  avg # of iterations =  4.3

     total cpu time spent up to now is      233.9 secs

     total energy              =    -303.29964669 Ry
     Harris-Foulkes estimate   =    -303.29971660 Ry
     estimated scf accuracy    <       0.00011983 Ry

     iteration #  2     ecut=    30.00 Ry     beta=0.70
     Davidson diagonalization with overlap
     ethr =  3.00E-07,  avg # of iterations =  3.2

     total cpu time spent up to now is      237.8 secs

     total energy              =    -303.29963693 Ry
     Harris-Foulkes estimate   =    -303.29969876 Ry
     estimated scf accuracy    <       0.00011818 Ry

     iteration #  3     ecut=    30.00 Ry     beta=0.70
     Davidson diagonalization with overlap
     ethr =  2.95E-07,  avg # of iterations =  2.9

     total cpu time spent up to now is      241.4 secs

     total energy              =    -303.29966550 Ry
     Harris-Foulkes estimate   =    -303.29968962 Ry
     estimated scf accuracy    <       0.00007338 Ry

     iteration #  4     ecut=    30.00 Ry     beta=0.70
     Davidson diagonalization with overlap
     ethr =  1.83E-07,  avg # of iterations =  2.9

     total cpu time spent up to now is      244.7 secs

     total energy              =    -303.29967637 Ry
     Harris-Foulkes estimate   =    -303.29967718 Ry
     estimated scf accuracy    <       0.00000153 Ry

     iteration #  5     ecut=    30.00 Ry     beta=0.70
     Davidson diagonalization with overlap
     ethr =  3.83E-09,  avg # of iterations =  3.3

     total cpu time spent up to now is      248.6 secs

     total energy              =    -303.29967683 Ry
     Harris-Foulkes estimate   =    -303.29967723 Ry
     estimated scf accuracy    <       0.00000100 Ry

     iteration #  6     ecut=    30.00 Ry     beta=0.70
     Davidson diagonalization with overlap
     ethr =  2.51E-09,  avg # of iterations =  2.6

     total cpu time spent up to now is      253.3 secs

     total energy              =    -303.29967702 Ry
     Harris-Foulkes estimate   =    -303.29967703 Ry
     estimated scf accuracy    <       0.00000001 Ry

     iteration #  7     ecut=    30.00 Ry     beta=0.70
     Davidson diagonalization with overlap
     ethr =  3.13E-11,  avg # of iterations =  3.0

     total cpu time spent up to now is      259.2 secs

     total energy              =    -303.29967703 Ry
     Harris-Foulkes estimate   =    -303.29967703 Ry
     estimated scf accuracy    <          4.7E-10 Ry

     iteration #  8     ecut=    30.00 Ry     beta=0.70
     Davidson diagonalization with overlap
     ethr =  1.18E-12,  avg # of iterations =  2.4

     total cpu time spent up to now is      264.5 secs

     End of self-consistent calculation

          k = 0.0000 0.0000 0.0000 (  1221 PWs)   bands (ev):

   -46.2343 -22.5263 -22.4407 -22.4407 -14.3779  -6.5875  -5.9810  -5.8544
     0.4338   0.4364   0.4364   7.8945   7.9372   7.9372   8.7543   8.7543
     8.9894   9.8122   9.8989   9.8989  12.1581  12.5336  12.5336  14.6074

          k = 0.0000 0.0000 0.1978 (  1225 PWs)   bands (ev):

   -46.2340 -22.5430 -22.4402 -22.4402 -14.3394  -6.5944  -5.9697  -5.8476
     0.4889   0.4889   0.5881   7.2686   7.8345   7.8345   8.4651   8.4651
     8.7598   9.1955   9.7880   9.7880  12.1874  13.0466  13.0466  14.3928

          k = 0.0000 0.0000 0.3956 (  1198 PWs)   bands (ev):

   -46.2334 -22.5681 -22.4387 -22.4387 -14.2756  -6.7255  -5.8365  -5.8074
     0.5774   0.5774   0.8335   6.3322   7.5810   7.5810   8.1908   8.1908
     8.4374   8.4844   9.6160   9.6160  12.2369  13.8073  13.8073  14.3927

          k = 0.0000 0.2000 0.0000 (  1211 PWs)   bands (ev):

   -46.2339 -22.5254 -22.4588 -22.4398 -14.3362  -6.6372  -5.9509  -5.8116
     0.4898   0.4967   0.5721   7.3460   7.8147   7.8219   8.3756   8.5468
     8.8129   9.2292   9.5738   9.7105  12.5450  12.8267  12.9071  14.5455

          k = 0.0000 0.2000 0.1978 (  1208 PWs)   bands (ev):

   -46.2336 -22.5416 -22.4579 -22.4391 -14.3025  -6.5645  -5.9725  -5.8139
     0.4265   0.5535   0.6946   7.0656   7.3889   7.7767   7.9088   8.2429
     8.8945   9.0762   9.4096   9.6590  12.8229  13.0776  13.2101  14.8537

          k = 0.0000 0.2000 0.3956 (  1206 PWs)   bands (ev):

   -46.2330 -22.5675 -22.4567 -22.4381 -14.2469  -6.5661  -5.8853  -5.8020
     0.4796   0.6496   0.7234   6.2850   7.0495   7.4277   7.6060   7.9249
     8.7299   9.1691   9.1802   9.4926  12.8727  13.8193  13.8231  14.9349

          k = 0.0000 0.4000 0.0000 (  1213 PWs)   bands (ev):

   -46.2334 -22.5242 -22.4877 -22.4390 -14.2669  -6.7991  -5.9268  -5.6110
     0.5859   0.5987   0.7844   6.4473   7.5144   7.5827   7.9730   8.4099
     8.4674   8.6690   9.1972   9.3533  12.5857  13.6982  13.7496  14.5280

          k = 0.0000 0.4000 0.1978 (  1206 PWs)   bands (ev):

   -46.2330 -22.5400 -22.4868 -22.4381 -14.2415  -6.6318  -5.9205  -5.6806
     0.4958   0.6634   0.6841   6.3814   7.0686   7.3248   7.4995   8.1361
     8.7313   8.9515   9.0547   9.5015  13.0835  13.7166  13.8434  14.9868

          k = 0.0000 0.4000 0.3956 (  1205 PWs)   bands (ev):

   -46.2325 -22.5660 -22.4853 -22.4370 -14.1995  -6.3162  -5.9637  -5.7729
     0.3933   0.5045   0.7732   6.1592   6.3609   6.6445   7.4676   7.7256
     8.6436   9.1340   9.3270   9.9336  13.7358  13.8415  14.1525  15.2068

          k = 0.2000 0.2000 0.0000 (  1209 PWs)   bands (ev):

   -46.2335 -22.5244 -22.4581 -22.4579 -14.2994  -6.6085  -5.8924  -5.8367
     0.4132   0.5506   0.6953   7.0578   7.4926   7.7845   8.0106   8.2476
     8.4892   9.0244   9.5507   9.7424  12.8071  13.0241  13.1544  14.9505

          k = 0.2000 0.2000 0.1978 (  1214 PWs)   bands (ev):

   -46.2333 -22.5408 -22.4574 -22.4572 -14.2694  -6.4957  -5.9362  -5.8127
     0.3605   0.3832   0.8587   6.7973   7.3461   7.4484   7.9550   7.9956
     8.2421   9.2579   9.4818   9.5923  13.1515  13.2884  13.2898  15.8425

          k = 0.2000 0.2000 0.3956 (  1196 PWs)   bands (ev):

   -46.2326 -22.5663 -22.4559 -22.4554 -14.2198  -6.4033  -5.9039  -5.7730
     0.2728   0.4464   0.7602   6.2689   6.8614   7.3776   7.4490   7.8370
     8.3707   9.3061   9.3825   9.4464  13.2735  13.8581  13.9126  15.7706

          k = 0.2000 0.4000 0.0000 (  1204 PWs)   bands (ev):

   -46.2329 -22.5233 -22.4865 -22.4565 -14.2386  -6.6558  -5.8769  -5.6847
     0.4732   0.6488   0.6906   6.3654   7.1919   7.3585   7.5864   7.9713
     8.4619   8.8499   9.2802   9.6182  12.9365  13.7604  13.8164  14.9733

          k = 0.2000 0.4000 0.1978 (  1195 PWs)   bands (ev):

   -46.2325 -22.5390 -22.4856 -22.4555 -14.2146  -6.4856  -5.8616  -5.7103
     0.2921   0.4045   0.7603   6.3197   6.9738   7.3144   7.4553   7.8409
     8.1478   9.1907   9.3732   9.5581  13.3404  13.8522  13.9114  15.7840

          k = 0.2000 0.4000 0.3956 (  1200 PWs)   bands (ev):

   -46.2321 -22.5649 -22.4842 -22.4547 -14.1751  -6.1549  -5.9029  -5.7312
     0.1556   0.2084   0.5316   6.1439   6.5668   6.8581   7.4550   7.7535
     7.9698   9.4002   9.5671   9.9001  13.9310  13.9835  14.2306  16.2175

          k = 0.4000 0.4000 0.0000 (  1204 PWs)   bands (ev):

   -46.2323 -22.5223 -22.4851 -22.4850 -14.1920  -6.4293  -5.8033  -5.7790
     0.3659   0.4593   0.7736   6.1384   6.5142   6.6297   7.5653   7.6333
     8.4966   9.0573   9.1924  10.1109  13.7279  13.8283  14.1625  15.0497

          k = 0.4000 0.4000 0.1978 (  1192 PWs)   bands (ev):

   -46.2319 -22.5377 -22.4841 -22.4838 -14.1704  -6.2582  -5.7525  -5.7519
     0.1563   0.1644   0.5349   6.1342   6.6325   6.9137   7.4667   7.7319
     7.8727   9.2993   9.4147  10.0850  13.9641  14.0105  14.2282  16.0218

          k = 0.4000 0.4000 0.3956 (  1201 PWs)   bands (ev):

   -46.2315 -22.5639 -22.4830 -22.4829 -14.1350  -5.9389  -5.7368  -5.6643
    -0.1663  -0.1327   0.0589   5.9929   6.5815   6.6397   7.5117   7.8113
     7.8635   9.8236   9.8621  10.0457  14.3307  14.3564  14.3720  17.0391

     the Fermi energy is    11.1736 ev

!    total energy              =    -303.29967703 Ry
     Harris-Foulkes estimate   =    -303.29967703 Ry
     estimated scf accuracy    <          4.0E-11 Ry

     The total energy is the sum of the following terms:

     one-electron contribution =     -72.78893616 Ry
     hartree contribution      =      60.22576319 Ry
     xc contribution           =     -84.15103397 Ry
     ewald contribution        =    -206.58547009 Ry
     smearing contrib. (-TS)   =       0.00000000 Ry

     convergence has been achieved in   8 iterations

     Forces acting on atoms (Ry/au):

     atom    1 type  1   force =     0.00000000    0.00000000    0.00262318
     atom    2 type  2   force =     0.00000000    0.00000000   -0.00107119
     atom    3 type  3   force =     0.00000000    0.00000000    0.00744060
     atom    4 type  3   force =     0.00000000    0.00000000   -0.00449629
     atom    5 type  3   force =     0.00000000    0.00000000   -0.00449629

     Total force =     0.010189     Total SCF correction =     0.000016


     entering subroutine stress ...

          total   stress  (Ry/bohr**3)                   (kbar)     P=  -27.48
  -0.00024395   0.00000000   0.00000000        -35.89      0.00      0.00
   0.00000000  -0.00024395   0.00000000          0.00    -35.89      0.00
   0.00000000   0.00000000  -0.00007245          0.00      0.00    -10.66


     number of scf cycles    =   7
     number of bfgs steps    =   6

     energy   old            =    -303.2994584322 Ry
     energy   new            =    -303.2996770275 Ry

     CASE: energy  _new < energy  _old

     new trust radius        =       0.0311322374 bohr
     new conv_thr            =       0.0000000002 Ry


ATOMIC_POSITIONS (crystal)
Ba       0.000000000   0.000000000   0.018689992
Ti       0.500000000   0.500000000   0.530908659
O        0.500000000   0.500000000  -0.016483304
O        0.500000000   0.000000000   0.493442327
[...]

     total cpu time spent up to now is      411.3 secs

     total energy              =    -303.29994755 Ry
     Harris-Foulkes estimate   =    -303.29994755 Ry
     estimated scf accuracy    <          6.1E-10 Ry

     iteration #  7     ecut=    30.00 Ry     beta=0.70
     Davidson diagonalization with overlap
     ethr =  1.53E-12,  avg # of iterations =  2.1

     total cpu time spent up to now is      414.7 secs

     End of self-consistent calculation

          k = 0.0000 0.0000 0.0000 (  1221 PWs)   bands (ev):

   -46.2453 -22.5319 -22.4516 -22.4516 -14.3670  -6.5911  -5.9826  -5.8588
     0.4448   0.4448   0.4507   7.8873   7.9270   7.9270   8.7384   8.7384
     8.9625   9.7915   9.8775   9.8775  12.1515  12.5743  12.5743  14.3948

          k = 0.0000 0.0000 0.1978 (  1225 PWs)   bands (ev):

   -46.2450 -22.5486 -22.4511 -22.4511 -14.3284  -6.5981  -5.9708  -5.8520
     0.4973   0.4973   0.6035   7.2600   7.8182   7.8182   8.4574   8.4574
     8.7351   9.1843   9.7767   9.7767  12.1807  13.0733  13.0733  14.3926

          k = 0.0000 0.0000 0.3956 (  1198 PWs)   bands (ev):

   -46.2444 -22.5737 -22.4495 -22.4495 -14.2644  -6.7284  -5.8408  -5.8085
     0.5856   0.5856   0.8467   6.3221   7.5627   7.5627   8.1848   8.1848
     8.4152   8.4815   9.6166   9.6166  12.2300  13.8185  13.8185  14.3923

          k = 0.0000 0.2000 0.0000 (  1211 PWs)   bands (ev):

   -46.2449 -22.5310 -22.4695 -22.4507 -14.3250  -6.6414  -5.9529  -5.8183
     0.5051   0.5054   0.5818   7.3349   7.8083   7.8190   8.3920   8.5314
     8.7756   9.2250   9.5468   9.7086  12.5839  12.8156  12.8971  14.5499

          k = 0.0000 0.2000 0.1978 (  1208 PWs)   bands (ev):

   -46.2446 -22.5472 -22.4687 -22.4499 -14.2912  -6.5691  -5.9740  -5.8201
     0.4381   0.5620   0.7066   7.0607   7.3645   7.7654   7.9272   8.2350
     8.8870   9.0562   9.3957   9.6573  12.8124  13.1024  13.2016  14.8538

          k = 0.0000 0.2000 0.3956 (  1206 PWs)   bands (ev):

   -46.2441 -22.5731 -22.4675 -22.4490 -14.2355  -6.5707  -5.8875  -5.8068
     0.4894   0.6581   0.7348   6.2778   7.0178   7.4579   7.5849   7.9226
     8.7141   9.1656   9.1816   9.4875  12.8611  13.8110  13.8306  14.9330

          k = 0.0000 0.4000 0.0000 (  1213 PWs)   bands (ev):

   -46.2444 -22.5299 -22.4983 -22.4499 -14.2552  -6.8044  -5.9283  -5.6227
     0.5983   0.6072   0.7974   6.4510   7.5171   7.5869   8.0090   8.4059
     8.4283   8.6710   9.1548   9.3417  12.6283  13.6726  13.7281  14.5323

          k = 0.0000 0.4000 0.1978 (  1206 PWs)   bands (ev):

   -46.2440 -22.5456 -22.4973 -22.4490 -14.2297  -6.6376  -5.9217  -5.6916
     0.5068   0.6720   0.6966   6.3831   7.0699   7.3425   7.4945   8.1329
     8.7234   8.9281   9.0414   9.4985  13.1112  13.6941  13.8222  14.9868

          k = 0.0000 0.4000 0.3956 (  1205 PWs)   bands (ev):

   -46.2435 -22.5716 -22.4959 -22.4479 -14.1877  -6.3249  -5.9632  -5.7820
     0.4048   0.5136   0.7820   6.1544   6.3563   6.6715   7.4463   7.7260
     8.6442   9.1242   9.3192   9.9307  13.7177  13.8521  14.1301  15.1984

          k = 0.2000 0.2000 0.0000 (  1209 PWs)   bands (ev):

   -46.2445 -22.5301 -22.4688 -22.4686 -14.2879  -6.6128  -5.8963  -5.8447
     0.4249   0.5604   0.7080   7.0523   7.4755   7.7854   8.0106   8.2602
     8.4746   9.0041   9.5547   9.7459  12.7977  13.0070  13.1482  14.9487

          k = 0.2000 0.2000 0.1978 (  1214 PWs)   bands (ev):

   -46.2443 -22.5464 -22.4682 -22.4680 -14.2578  -6.5009  -5.9387  -5.8209
     0.3724   0.3926   0.8704   6.7928   7.3279   7.4277   7.9718   8.0100
     8.2404   9.2383   9.4769   9.5957  13.1352  13.2744  13.2885  15.8309

          k = 0.2000 0.2000 0.3956 (  1196 PWs)   bands (ev):

   -46.2436 -22.5719 -22.4666 -22.4662 -14.2081  -6.4097  -5.9044  -5.7814
     0.2850   0.4514   0.7743   6.2646   6.8286   7.3566   7.4811   7.8506
     8.3732   9.2934   9.3803   9.4413  13.2590  13.8418  13.9053  15.7587

          k = 0.2000 0.4000 0.0000 (  1204 PWs)   bands (ev):

   -46.2439 -22.5290 -22.4970 -22.4673 -14.2266  -6.6607  -5.8816  -5.6970
     0.4826   0.6515   0.7131   6.3668   7.1877   7.3590   7.5869   8.0102
     8.4461   8.8246   9.2918   9.6131  12.9230  13.7326  13.8026  14.9627

          k = 0.2000 0.4000 0.1978 (  1195 PWs)   bands (ev):

   -46.2436 -22.5446 -22.4962 -22.4663 -14.2026  -6.4911  -5.8656  -5.7226
     0.2995   0.4184   0.7731   6.3180   6.9767   7.3162   7.4482   7.8547
     8.1578   9.1902   9.3572   9.5550  13.3280  13.8308  13.8912  15.7715

          k = 0.2000 0.4000 0.3956 (  1200 PWs)   bands (ev):

   -46.2431 -22.5705 -22.4948 -22.4655 -14.1630  -6.1645  -5.9036  -5.7428
     0.1698   0.2103   0.5493   6.1319   6.5708   6.8744   7.4212   7.7780
     7.9908   9.3941   9.5572   9.8945  13.9108  13.9693  14.2071  16.1957

          k = 0.4000 0.4000 0.0000 (  1204 PWs)   bands (ev):

   -46.2433 -22.5279 -22.4957 -22.4955 -14.1795  -6.4317  -5.8172  -5.7908
     0.3818   0.4721   0.7796   6.1341   6.5240   6.6384   7.5794   7.6488
     8.5101   9.0560   9.1893  10.0953  13.6963  13.7993  14.1496  15.0149

          k = 0.4000 0.4000 0.1978 (  1192 PWs)   bands (ev):

   -46.2430 -22.5433 -22.4947 -22.4944 -14.1579  -6.2609  -5.7664  -5.7644
     0.1733   0.1750   0.5442   6.1260   6.6420   6.9232   7.4763   7.7467
     7.8918   9.2949   9.4105  10.0685  13.9360  13.9819  14.2125  15.9803

          k = 0.4000 0.4000 0.3956 (  1201 PWs)   bands (ev):

   -46.2425 -22.5695 -22.4935 -22.4934 -14.1225  -5.9423  -5.7484  -5.6801
    -0.1477  -0.1285   0.0761   5.9734   6.5990   6.6498   7.5242   7.8249
     7.8776   9.8185   9.8549  10.0287  14.3041  14.3277  14.3502  16.9790

     the Fermi energy is    11.1180 ev

!    total energy              =    -303.29994755 Ry
     Harris-Foulkes estimate   =    -303.29994755 Ry
     estimated scf accuracy    <          6.8E-12 Ry

     The total energy is the sum of the following terms:

     one-electron contribution =     -72.63253406 Ry
     hartree contribution      =      60.14397587 Ry
     xc contribution           =     -84.14942300 Ry
     ewald contribution        =    -206.66196637 Ry
     smearing contrib. (-TS)   =       0.00000000 Ry

     convergence has been achieved in   7 iterations

     Forces acting on atoms (Ry/au):

     atom    1 type  1   force =     0.00000000    0.00000000    0.00099639
     atom    2 type  2   force =     0.00000000    0.00000000   -0.00130810
     atom    3 type  3   force =     0.00000000    0.00000000   -0.00043308
     atom    4 type  3   force =     0.00000000    0.00000000    0.00037239
     atom    5 type  3   force =     0.00000000    0.00000000    0.00037239

     Total force =     0.001780     Total SCF correction =     0.000001


     entering subroutine stress ...

          total   stress  (Ry/bohr**3)                   (kbar)     P=  -28.82
  -0.00025232   0.00000000   0.00000000        -37.12      0.00      0.00
   0.00000000  -0.00025232   0.00000000          0.00    -37.12      0.00
   0.00000000   0.00000000  -0.00008316          0.00      0.00    -12.23


     number of scf cycles    =  10
     number of bfgs steps    =   9

     energy   old            =    -303.2999427660 Ry
     energy   new            =    -303.2999475496 Ry

     CASE: energy  _new < energy  _old

     new trust radius        =       0.0031309836 bohr
     new conv_thr            =            1.0E-10 Ry


ATOMIC_POSITIONS (crystal)
Ba       0.000000000   0.000000000   0.020604613
Ti       0.500000000   0.500000000   0.530311403
O        0.500000000   0.500000000  -0.015428482
O        0.500000000   0.000000000   0.492256232
O        0.000000000   0.500000000   0.492256232



     Writing output data file asymm-relax.save
     NEW-OLD atomic charge density approx. for the potential

     Check: negative/imaginary core charge=   -0.000001    0.000000

     total cpu time spent up to now is      420.7 secs

     per-process dynamical memory:    41.8 Mb

     Self-consistent Calculation

     iteration #  1     ecut=    30.00 Ry     beta=0.70
     Davidson diagonalization with overlap
     ethr =  1.00E-06,  avg # of iterations =  3.0

     Threshold (ethr) on eigenvalues was too large:
     Diagonalizing with lowered threshold

     Davidson diagonalization with overlap
     ethr =  3.03E-09,  avg # of iterations =  3.1

     total cpu time spent up to now is      428.4 secs

     total energy              =    -303.29995193 Ry
     Harris-Foulkes estimate   =    -303.29995275 Ry
     estimated scf accuracy    <       0.00000126 Ry

     iteration #  2     ecut=    30.00 Ry     beta=0.70
     Davidson diagonalization with overlap
     ethr =  3.15E-09,  avg # of iterations =  3.5

     total cpu time spent up to now is      432.4 secs

     total energy              =    -303.29995189 Ry
     Harris-Foulkes estimate   =    -303.29995272 Ry
     estimated scf accuracy    <       0.00000171 Ry

     iteration #  3     ecut=    30.00 Ry     beta=0.70
     Davidson diagonalization with overlap
     ethr =  3.15E-09,  avg # of iterations =  3.1

     total cpu time spent up to now is      436.1 secs

     total energy              =    -303.29995228 Ry
     Harris-Foulkes estimate   =    -303.29995249 Ry
     estimated scf accuracy    <       0.00000064 Ry

     iteration #  4     ecut=    30.00 Ry     beta=0.70
     Davidson diagonalization with overlap
     ethr =  1.60E-09,  avg # of iterations =  3.0

     total cpu time spent up to now is      439.4 secs

     total energy              =    -303.29995237 Ry
     Harris-Foulkes estimate   =    -303.29995238 Ry
     estimated scf accuracy    <       0.00000001 Ry

     iteration #  5     ecut=    30.00 Ry     beta=0.70
     Davidson diagonalization with overlap
     ethr =  2.66E-11,  avg # of iterations =  3.2

     total cpu time spent up to now is      443.4 secs

     total energy              =    -303.29995238 Ry
     Harris-Foulkes estimate   =    -303.29995238 Ry
     estimated scf accuracy    <       0.00000001 Ry

     iteration #  6     ecut=    30.00 Ry     beta=0.70
     Davidson diagonalization with overlap
     ethr =  2.66E-11,  avg # of iterations =  2.3

     total cpu time spent up to now is      446.9 secs

     total energy              =    -303.29995238 Ry
     Harris-Foulkes estimate   =    -303.29995238 Ry
     estimated scf accuracy    <          1.6E-10 Ry

     iteration #  7     ecut=    30.00 Ry     beta=0.70
     Davidson diagonalization with overlap
     ethr =  3.89E-13,  avg # of iterations =  3.2

     total cpu time spent up to now is      450.8 secs

     End of self-consistent calculation

          k = 0.0000 0.0000 0.0000 (  1221 PWs)   bands (ev):

   -46.2474 -22.5330 -22.4536 -22.4536 -14.3662  -6.5911  -5.9824  -5.8606
     0.4455   0.4455   0.4518   7.8865   7.9266   7.9266   8.7413   8.7413
     8.9618   9.7937   9.8779   9.8779  12.1501  12.5685  12.5685  14.3924

          k = 0.0000 0.0000 0.1978 (  1225 PWs)   bands (ev):

   -46.2471 -22.5496 -22.4531 -22.4531 -14.3277  -6.5989  -5.9695  -5.8538
     0.4980   0.4980   0.6044   7.2603   7.8181   7.8181   8.4597   8.4597
     8.7345   9.1844   9.7765   9.7765  12.1792  13.0685  13.0685  14.3903

          k = 0.0000 0.0000 0.3956 (  1198 PWs)   bands (ev):

   -46.2464 -22.5747 -22.4516 -22.4516 -14.2637  -6.7298  -5.8427  -5.8065
     0.5864   0.5864   0.8473   6.3233   7.5627   7.5627   8.1868   8.1868
     8.4148   8.4801   9.6156   9.6156  12.2285  13.8148  13.8148  14.3900

          k = 0.0000 0.2000 0.0000 (  1211 PWs)   bands (ev):

   -46.2470 -22.5320 -22.4716 -22.4527 -14.3242  -6.6410  -5.9529  -5.8200
     0.5058   0.5063   0.5826   7.3343   7.8073   7.8190   8.3954   8.5330
     8.7739   9.2253   9.5483   9.7095  12.5779  12.8142  12.8944  14.5454

          k = 0.0000 0.2000 0.1978 (  1208 PWs)   bands (ev):

   -46.2466 -22.5482 -22.4707 -22.4520 -14.2905  -6.5695  -5.9733  -5.8218
     0.4389   0.5627   0.7074   7.0605   7.3653   7.7658   7.9276   8.2362
     8.8871   9.0552   9.3961   9.6576  12.8108  13.0978  13.1990  14.8511

          k = 0.0000 0.2000 0.3956 (  1206 PWs)   bands (ev):

   -46.2461 -22.5741 -22.4695 -22.4511 -14.2347  -6.5721  -5.8859  -5.8082
     0.4902   0.6588   0.7354   6.2789   7.0200   7.4553   7.5854   7.9241
     8.7133   9.1648   9.1807   9.4879  12.8597  13.8088  13.8269  14.9307

          k = 0.0000 0.4000 0.0000 (  1213 PWs)   bands (ev):

   -46.2464 -22.5309 -22.5003 -22.4519 -14.2544  -6.8040  -5.9285  -5.6241
     0.5989   0.6079   0.7982   6.4493   7.5179   7.5864   8.0126   8.4049
     8.4256   8.6709   9.1583   9.3435  12.6219  13.6715  13.7261  14.5279

          k = 0.0000 0.4000 0.1978 (  1206 PWs)   bands (ev):

   -46.2460 -22.5467 -22.4994 -22.4510 -14.2289  -6.6375  -5.9216  -5.6930
     0.5074   0.6726   0.6974   6.3815   7.0708   7.3428   7.4961   8.1317
     8.7225   8.9297   9.0416   9.4989  13.1062  13.6929  13.8203  14.9836

          k = 0.0000 0.4000 0.3956 (  1205 PWs)   bands (ev):

   -46.2455 -22.5726 -22.4979 -22.4499 -14.1869  -6.3260  -5.9618  -5.7833
     0.4057   0.5141   0.7827   6.1543   6.3573   6.6698   7.4495   7.7245
     8.6434   9.1234   9.3184   9.9318  13.7163  13.8485  14.1284  15.1963

          k = 0.2000 0.2000 0.0000 (  1209 PWs)   bands (ev):

   -46.2466 -22.5311 -22.4709 -22.4707 -14.2872  -6.6120  -5.8967  -5.8464
     0.4258   0.5610   0.7088   7.0518   7.4750   7.7846   8.0105   8.2597
     8.4786   9.0051   9.5545   9.7455  12.7949  13.0042  13.1470  14.9440

          k = 0.2000 0.2000 0.1978 (  1214 PWs)   bands (ev):

   -46.2463 -22.5474 -22.4702 -22.4700 -14.2571  -6.5007  -5.9384  -5.8226
     0.3733   0.3932   0.8711   6.7927   7.3289   7.4276   7.9735   8.0091
     8.2390   9.2394   9.4770   9.5946  13.1335  13.2720  13.2861  15.8274

          k = 0.2000 0.2000 0.3956 (  1196 PWs)   bands (ev):

   -46.2457 -22.5729 -22.4687 -22.4682 -14.2073  -6.4110  -5.9025  -5.7832
     0.2860   0.4516   0.7752   6.2655   6.8303   7.3571   7.4799   7.8493
     8.3717   9.2942   9.3793   9.4416  13.2578  13.8399  13.9027  15.7570

          k = 0.2000 0.4000 0.0000 (  1204 PWs)   bands (ev):

   -46.2460 -22.5300 -22.4991 -22.4693 -14.2258  -6.6599  -5.8821  -5.6985
     0.4834   0.6519   0.7143   6.3652   7.1866   7.3580   7.5863   8.0109
     8.4495   8.8260   9.2921   9.6120  12.9201  13.7309  13.8015  14.9590

          k = 0.2000 0.4000 0.1978 (  1195 PWs)   bands (ev):

   -46.2456 -22.5456 -22.4982 -22.4683 -14.2018  -6.4905  -5.8659  -5.7241
     0.3000   0.4194   0.7740   6.3165   6.9763   7.3158   7.4480   7.8552
     8.1588   9.1912   9.3575   9.5539  13.3252  13.8298  13.8895  15.7687

          k = 0.2000 0.4000 0.3956 (  1200 PWs)   bands (ev):

   -46.2451 -22.5715 -22.4968 -22.4675 -14.1622  -6.1651  -5.9027  -5.7443
     0.1709   0.2104   0.5505   6.1317   6.5702   6.8743   7.4219   7.7776
     7.9899   9.3939   9.5559   9.8956  13.9094  13.9674  14.2055  16.1943

          k = 0.4000 0.4000 0.0000 (  1204 PWs)   bands (ev):

   -46.2454 -22.5289 -22.4978 -22.4976 -14.1787  -6.4301  -5.8188  -5.7919
     0.3831   0.4732   0.7799   6.1326   6.5232   6.6360   7.5784   7.6472
     8.5113   9.0586   9.1929  10.0935  13.6946  13.7972  14.1489  15.0130

          k = 0.4000 0.4000 0.1978 (  1192 PWs)   bands (ev):

   -46.2450 -22.5443 -22.4968 -22.4965 -14.1571  -6.2593  -5.7680  -5.7654
     0.1746   0.1758   0.5448   6.1245   6.6395   6.9224   7.4762   7.7458
     7.8920   9.2970   9.4131  10.0665  13.9342  13.9800  14.2118  15.9795

          k = 0.4000 0.4000 0.3956 (  1201 PWs)   bands (ev):

   -46.2445 -22.5705 -22.4956 -22.4955 -14.1217  -5.9408  -5.7495  -5.6817
    -0.1463  -0.1282   0.0772   5.9727   6.5982   6.6474   7.5244   7.8253
     7.8773   9.8193   9.8558  10.0269  14.3030  14.3263  14.3491  16.9815

     the Fermi energy is    11.1202 ev

!    total energy              =    -303.29995238 Ry
     Harris-Foulkes estimate   =    -303.29995238 Ry
     estimated scf accuracy    <          1.2E-11 Ry

     The total energy is the sum of the following terms:

     one-electron contribution =     -72.62937707 Ry
     hartree contribution      =      60.14184481 Ry
     xc contribution           =     -84.14919477 Ry
     ewald contribution        =    -206.66322534 Ry
     smearing contrib. (-TS)   =       0.00000000 Ry

     convergence has been achieved in   7 iterations

     Forces acting on atoms (Ry/au):

     atom    1 type  1   force =     0.00000000    0.00000000    0.00053899
     atom    2 type  2   force =     0.00000000    0.00000000   -0.00051301
     atom    3 type  3   force =     0.00000000    0.00000000   -0.00046126
     atom    4 type  3   force =     0.00000000    0.00000000    0.00021764
     atom    5 type  3   force =     0.00000000    0.00000000    0.00021764

     Total force =     0.000928     Total SCF correction =     0.000004


     entering subroutine stress ...

          total   stress  (Ry/bohr**3)                   (kbar)     P=  -28.96
  -0.00025226   0.00000000   0.00000000        -37.11      0.00      0.00
   0.00000000  -0.00025226   0.00000000          0.00    -37.11      0.00
   0.00000000   0.00000000  -0.00008616          0.00      0.00    -12.67


     bfgs converged in  11 scf cycles and  10 bfgs steps
     (criteria: energy < 0.10E-03, force < 0.10E-02)

     End of BFGS Geometry Optimization

     Final energy   =    -303.2999523798 Ry
Begin final coordinates

ATOMIC_POSITIONS (crystal)
Ba       0.000000000   0.000000000   0.020604613
Ti       0.500000000   0.500000000   0.530311403
O        0.500000000   0.500000000  -0.015428482
O        0.500000000   0.000000000   0.492256232
O        0.000000000   0.500000000   0.492256232
End final coordinates



     Writing output data file asymm-relax.save
 
     init_run     :      3.52s CPU      3.56s WALL (       1 calls)
     electrons    :    366.36s CPU    378.92s WALL (      11 calls)
     update_pot   :      3.98s CPU      4.14s WALL (      10 calls)
     forces       :     14.30s CPU     14.71s WALL (      11 calls)
     stress       :     46.78s CPU     48.32s WALL (      11 calls)

     Called by init_run:
     wfcinit      :      1.18s CPU      1.20s WALL (       1 calls)
     potinit      :      0.20s CPU      0.21s WALL (       1 calls)

     Called by electrons:
     c_bands      :    248.48s CPU    256.49s WALL (      90 calls)
     sum_band     :     73.38s CPU     76.33s WALL (      90 calls)
     v_of_rho     :      7.32s CPU      7.54s WALL (      99 calls)
     newd         :     40.23s CPU     41.57s WALL (      99 calls)
     mix_rho      :      0.86s CPU      0.86s WALL (      90 calls)

     Called by c_bands:
     init_us_2    :      5.37s CPU      6.01s WALL (    3654 calls)
     cegterg      :    234.72s CPU    240.87s WALL (    1620 calls)

     Called by *egterg:
     h_psi        :    171.21s CPU    175.77s WALL (    6567 calls)
     s_psi        :     10.44s CPU     10.53s WALL (    6567 calls)
     g_psi        :      2.25s CPU      2.42s WALL (    4929 calls)
     cdiaghg      :     14.09s CPU     14.33s WALL (    6333 calls)

     Called by h_psi:
     add_vuspsi   :      9.77s CPU     10.23s WALL (    6567 calls)

     General routines
     calbec       :     16.14s CPU     16.64s WALL (    8583 calls)
     fft          :      5.64s CPU      5.74s WALL (    1833 calls)
     ffts         :      0.19s CPU      0.17s WALL (     189 calls)
     fftw         :    141.61s CPU    145.17s WALL (  248274 calls)
     interpolate  :      0.97s CPU      0.97s WALL (     189 calls)
     davcio       :      1.68s CPU      2.30s WALL (    5274 calls)
 
 
     PWSCF        :  7m20.36s CPU     7m36.15s WALL

 
   This run was terminated on:  11: 0: 5  10Jul2014            

=------------------------------------------------------------------------------=
   JOB DONE.
=------------------------------------------------------------------------------=
