
     Program PWSCF v.4.3.2      starts on 10Jul2014 at 12: 7:35 

     This program is part of the open-source Quantum ESPRESSO suite
     for quantum simulation of materials; please cite
         "P. Giannozzi et al., J. Phys.:Condens. Matter 21 395502 (2009);
          URL http://www.quantum-espresso.org", 
     in publications or presentations arising from this work. More details at
     http://www.quantum-espresso.org/wiki/index.php/Citing_Quantum-ESPRESSO

     Current dimensions of program PWSCF are:
     Max number of different atomic species (ntypx) = 10
     Max number of k-points (npk) =  40000
     Max angular momentum in pseudopotentials (lmaxx) =  3
     Waiting for input...
     Reading input from stdin
Warning: card   &IONS ignored
Warning: card   / ignored
Warning: card   &CELL ignored
Warning: card   / ignored
               file O.pbe-rrkjus.UPF: wavefunction(s)  2S renormalized

     Atomic positions and unit cell read from directory:
     tmp/batio3.save/
 
 
     G-vector sticks info
     --------------------
     sticks:   dense  smooth     PW     G-vecs:    dense   smooth      PW
     Sum         925     465    161                20863     7441    1551
 


     bravais-lattice index     =            1
     lattice parameter (alat)  =       6.9353  a.u.
     unit-cell volume          =     333.5763 (a.u.)^3
     number of atoms/cell      =            5
     number of atomic types    =            3
     number of electrons       =        40.00
     number of Kohn-Sham states=           20
     kinetic-energy cutoff     =      30.0000  Ry
     charge density cutoff     =     240.0000  Ry
     Exchange-correlation      =  SLA  PW   PBE  PBE ( 1 4 3 4 0)
     EXX-fraction              =        0.00

     celldm(1)=   6.935297  celldm(2)=   0.000000  celldm(3)=   0.000000
     celldm(4)=   0.000000  celldm(5)=   0.000000  celldm(6)=   0.000000

     crystal axes: (cart. coord. in units of alat)
               a(1) = (   1.000000   0.000000   0.000000 )  
               a(2) = (   0.000000   1.000000   0.000000 )  
               a(3) = (   0.000000   0.000000   1.000000 )  

     reciprocal axes: (cart. coord. in units 2 pi/alat)
               b(1) = (  1.000000  0.000000  0.000000 )  
               b(2) = (  0.000000  1.000000  0.000000 )  
               b(3) = (  0.000000  0.000000  1.000000 )  


     PseudoPot. # 1 for Ba read from file:
     tmp/batio3.save/Ba.pbe-nsp-van.UPF
     MD5 check sum: a011de417d3466d8e94df216395bc359
     Pseudo is Ultrasoft + core correction, Zval = 10.0
     Generated by new atomic code, or converted to UPF format
     Using radial grid of  907 points,  6 beta functions with: 
                l(1) =   0
                l(2) =   0
                l(3) =   1
                l(4) =   1
                l(5) =   2
                l(6) =   2
     Q(r) pseudized with  6 coefficients,  rinner =    1.200   1.200   1.200
                                                       1.200   1.200

     PseudoPot. # 2 for Ti read from file:
     tmp/batio3.save/Ti.pbe-sp-van_ak.UPF
     MD5 check sum: 8e4df49b7f0d34bbd5052bf3f5ea0213
     Pseudo is Ultrasoft, Zval = 12.0
     Generated by new atomic code, or converted to UPF format
     Using radial grid of  851 points,  6 beta functions with: 
                l(1) =   0
                l(2) =   0
                l(3) =   1
                l(4) =   1
                l(5) =   2
                l(6) =   2
     Q(r) pseudized with  8 coefficients,  rinner =    1.000   1.000   1.000
                                                       1.000   1.000

     PseudoPot. # 3 for O  read from file:
     tmp/batio3.save/O.pbe-rrkjus.UPF
     MD5 check sum: 390ba29e75625707450f3bd3f0eb6be9
     Pseudo is Ultrasoft, Zval =  6.0
     Generated by new atomic code, or converted to UPF format
     Using radial grid of 1269 points,  4 beta functions with: 
                l(1) =   0
                l(2) =   0
                l(3) =   1
                l(4) =   1
     Q(r) pseudized with 0 coefficients 


     atomic species   valence    mass     pseudopotential
        Ba            10.00   137.34000     Ba( 1.00)
        Ti            12.00    47.90000     Ti( 1.00)
        O              6.00    16.00000     O ( 1.00)

     No symmetry found

   Cartesian axes

     site n.     atom                  positions (alat units)
         1           Ba  tau(   1) = (   0.0000000   0.0000000   0.0000000  )
         2           Ti  tau(   2) = (   0.5000000   0.5000000   0.5100000  )
         3           O   tau(   3) = (   0.5000000   0.5000000   0.0000000  )
         4           O   tau(   4) = (   0.5000000   0.0000000   0.5000000  )
         5           O   tau(   5) = (   0.0000000   0.5000000   0.5000000  )

     number of k points=    60
                       cart. coord. in units 2pi/alat
        k(    1) = (   0.0000000   0.0000000   0.0000000), wk =   0.0080000
        k(    2) = (   0.0000000   0.0000000   0.1111111), wk =   0.0080000
        k(    3) = (   0.0000000   0.0000000   0.2222222), wk =   0.0080000
        k(    4) = (   0.0000000   0.0000000   0.3333333), wk =   0.0080000
        k(    5) = (   0.0000000   0.0000000   0.4444444), wk =   0.0080000
        k(    6) = (   0.0000000   0.0000000   0.5555556), wk =   0.0080000
        k(    7) = (   0.0000000   0.0000000   0.6666667), wk =   0.0080000
        k(    8) = (   0.0000000   0.0000000   0.7777778), wk =   0.0080000
        k(    9) = (   0.0000000   0.0000000   0.8888889), wk =   0.0080000
        k(   10) = (   0.0000000   0.0000000   1.0000000), wk =   0.0080000
        k(   11) = (   0.0000000   0.2000000   0.0000000), wk =   0.0320000
        k(   12) = (   0.0000000   0.2000000   0.1111111), wk =   0.0320000
        k(   13) = (   0.0000000   0.2000000   0.2222222), wk =   0.0320000
        k(   14) = (   0.0000000   0.2000000   0.3333333), wk =   0.0320000
        k(   15) = (   0.0000000   0.2000000   0.4444444), wk =   0.0320000
        k(   16) = (   0.0000000   0.2000000   0.5555556), wk =   0.0320000
        k(   17) = (   0.0000000   0.2000000   0.6666667), wk =   0.0320000
        k(   18) = (   0.0000000   0.2000000   0.7777778), wk =   0.0320000
        k(   19) = (   0.0000000   0.2000000   0.8888889), wk =   0.0320000
        k(   20) = (   0.0000000   0.2000000   1.0000000), wk =   0.0320000
        k(   21) = (   0.0000000   0.4000000   0.0000000), wk =   0.0320000
        k(   22) = (   0.0000000   0.4000000   0.1111111), wk =   0.0320000
        k(   23) = (   0.0000000   0.4000000   0.2222222), wk =   0.0320000
        k(   24) = (   0.0000000   0.4000000   0.3333333), wk =   0.0320000
        k(   25) = (   0.0000000   0.4000000   0.4444444), wk =   0.0320000
        k(   26) = (   0.0000000   0.4000000   0.5555556), wk =   0.0320000
        k(   27) = (   0.0000000   0.4000000   0.6666667), wk =   0.0320000
        k(   28) = (   0.0000000   0.4000000   0.7777778), wk =   0.0320000
        k(   29) = (   0.0000000   0.4000000   0.8888889), wk =   0.0320000
        k(   30) = (   0.0000000   0.4000000   1.0000000), wk =   0.0320000
        k(   31) = (   0.2000000   0.2000000   0.0000000), wk =   0.0320000
        k(   32) = (   0.2000000   0.2000000   0.1111111), wk =   0.0320000
        k(   33) = (   0.2000000   0.2000000   0.2222222), wk =   0.0320000
        k(   34) = (   0.2000000   0.2000000   0.3333333), wk =   0.0320000
        k(   35) = (   0.2000000   0.2000000   0.4444444), wk =   0.0320000
        k(   36) = (   0.2000000   0.2000000   0.5555556), wk =   0.0320000
        k(   37) = (   0.2000000   0.2000000   0.6666667), wk =   0.0320000
        k(   38) = (   0.2000000   0.2000000   0.7777778), wk =   0.0320000
        k(   39) = (   0.2000000   0.2000000   0.8888889), wk =   0.0320000
        k(   40) = (   0.2000000   0.2000000   1.0000000), wk =   0.0320000
        k(   41) = (   0.2000000   0.4000000   0.0000000), wk =   0.0640000
        k(   42) = (   0.2000000   0.4000000   0.1111111), wk =   0.0640000
        k(   43) = (   0.2000000   0.4000000   0.2222222), wk =   0.0640000
        k(   44) = (   0.2000000   0.4000000   0.3333333), wk =   0.0640000
        k(   45) = (   0.2000000   0.4000000   0.4444444), wk =   0.0640000
        k(   46) = (   0.2000000   0.4000000   0.5555556), wk =   0.0640000
        k(   47) = (   0.2000000   0.4000000   0.6666667), wk =   0.0640000
        k(   48) = (   0.2000000   0.4000000   0.7777778), wk =   0.0640000
        k(   49) = (   0.2000000   0.4000000   0.8888889), wk =   0.0640000
        k(   50) = (   0.2000000   0.4000000   1.0000000), wk =   0.0640000
        k(   51) = (   0.4000000   0.4000000   0.0000000), wk =   0.0320000
        k(   52) = (   0.4000000   0.4000000   0.1111111), wk =   0.0320000
        k(   53) = (   0.4000000   0.4000000   0.2222222), wk =   0.0320000
        k(   54) = (   0.4000000   0.4000000   0.3333333), wk =   0.0320000
        k(   55) = (   0.4000000   0.4000000   0.4444444), wk =   0.0320000
        k(   56) = (   0.4000000   0.4000000   0.5555556), wk =   0.0320000
        k(   57) = (   0.4000000   0.4000000   0.6666667), wk =   0.0320000
        k(   58) = (   0.4000000   0.4000000   0.7777778), wk =   0.0320000
        k(   59) = (   0.4000000   0.4000000   0.8888889), wk =   0.0320000
        k(   60) = (   0.4000000   0.4000000   1.0000000), wk =   0.0320000

     Dense  grid:    20863 G-vectors     FFT dimensions: (  36,  36,  36)

     Smooth grid:     7441 G-vectors     FFT dimensions: (  25,  25,  25)

     Largest allocated arrays     est. size (Mb)     dimensions
        Kohn-Sham Wavefunctions         0.29 Mb     (    942,   20)
        NL pseudopotentials             0.86 Mb     (    942,   60)
        Each V/rho on FFT grid          0.71 Mb     (  46656)
        Each G-vector array             0.16 Mb     (  20863)
        G-vector shells                 0.00 Mb     (    246)
     Largest temporary arrays     est. size (Mb)     dimensions
        Auxiliary wavefunctions         1.15 Mb     (    942,   80)
        Each subspace H/S matrix        0.10 Mb     (  80,  80)
        Each <psi_i|beta_j> matrix      0.02 Mb     (     60,   20)

     Check: negative/imaginary core charge=   -0.000001    0.000000

     The potential is recalculated from file :
     tmp/batio3.save/charge-density.dat

     Starting wfc are   35 atomic wfcs

     total cpu time spent up to now is        2.2 secs

     per-process dynamical memory:    24.7 Mb

     Band Structure Calculation
     Davidson diagonalization with overlap

     ethr =  2.50E-11,  avg # of iterations = 14.8

     total cpu time spent up to now is       30.9 secs

     End of band structure calculation

          k = 0.0000 0.0000 0.0000     band energies (ev):

   -41.0448 -17.5067 -17.4974 -17.4974  -9.7862  -2.6978  -2.5216  -2.5156
     5.0174   5.0174   5.0198  12.4627  12.4627  12.4758  12.5236  12.5236
    12.5301  14.5881  14.5881  14.5983

          k = 0.0000 0.0000 0.1111     band energies (ev):

   -41.0442 -17.5291 -17.4961 -17.4961  -9.7335  -2.8016  -2.5117  -2.4430
     5.0579   5.0579   5.1628  12.1838  12.2579  12.2579  12.3603  12.4967
    12.4967  14.2013  14.4601  14.4601

          k = 0.0000 0.0000 0.2222     band energies (ev):

   -41.0429 -17.5856 -17.4933 -17.4933  -9.5947  -3.1476  -2.5018  -2.1364
     5.1642   5.1642   5.5187  11.3128  11.8068  11.8068  12.0918  12.4317
    12.4317  13.4216  14.1937  14.1937

          k = 0.0000 0.0000 0.3333     band energies (ev):

   -41.0415 -17.6481 -17.4905 -17.4905  -9.4256  -3.5441  -2.4904  -1.7441
     5.2923   5.2923   5.9217  10.3453  11.3790  11.3790  11.8196  12.3375
    12.3375  12.7251  13.9510  13.9510

          k = 0.0000 0.0000 0.4444     band energies (ev):

   -41.0404 -17.6876 -17.4883 -17.4883  -9.3071  -3.8023  -2.4827  -1.4648
     5.3808   5.3808   6.1899   9.7236  11.1316  11.1316  11.6561  12.2614
    12.2614  12.3196  13.8176  13.8176

          k = 0.0000 0.0000 0.5556     band energies (ev):

   -41.0404 -17.6876 -17.4883 -17.4883  -9.3071  -3.8023  -2.4827  -1.4648
     5.3808   5.3808   6.1899   9.7236  11.1316  11.1316  11.6561  12.2614
    12.2614  12.3196  13.8176  13.8176

          k = 0.0000 0.0000 0.6667     band energies (ev):

   -41.0415 -17.6481 -17.4905 -17.4905  -9.4256  -3.5441  -2.4904  -1.7441
     5.2923   5.2923   5.9217  10.3453  11.3790  11.3790  11.8196  12.3375
    12.3375  12.7251  13.9510  13.9510

          k = 0.0000 0.0000 0.7778     band energies (ev):

   -41.0429 -17.5856 -17.4933 -17.4933  -9.5947  -3.1476  -2.5018  -2.1364
     5.1642   5.1642   5.5187  11.3128  11.8068  11.8068  12.0918  12.4317
    12.4317  13.4216  14.1937  14.1937

          k = 0.0000 0.0000 0.8889     band energies (ev):

   -41.0442 -17.5291 -17.4961 -17.4961  -9.7335  -2.8016  -2.5117  -2.4430
     5.0579   5.0579   5.1628  12.1838  12.2579  12.2579  12.3603  12.4967
    12.4967  14.2013  14.4601  14.4601

          k = 0.0000 0.0000 1.0000     band energies (ev):

   -41.0448 -17.5067 -17.4974 -17.4974  -9.7862  -2.6978  -2.5216  -2.5156
     5.0174   5.0174   5.0198  12.4627  12.4627  12.4758  12.5236  12.5236
    12.5301  14.5881  14.5881  14.5983

          k = 0.0000 0.2000 0.0000     band energies (ev):

   -41.0432 -17.5635 -17.5033 -17.4939  -9.6271  -3.0718  -2.5086  -2.2022
     5.1399   5.1422   5.4352  11.5015  11.9069  11.9236  12.1390  12.4460
    12.4588  13.5718  14.2300  14.2564

          k = 0.0000 0.2000 0.1111     band energies (ev):

   -41.0428 -17.5622 -17.5258 -17.4933  -9.5827  -3.0384  -2.4733  -2.2576
     5.0835   5.1882   5.5625  11.2980  11.7364  11.8431  12.0460  12.2889
    12.4850  13.3681  14.0746  14.1930

          k = 0.0000 0.2000 0.2222     band energies (ev):

   -41.0414 -17.5811 -17.5577 -17.4903  -9.4663  -3.0953  -2.3709  -2.2523
     5.0698   5.3161   5.7313  10.8375  11.3827  11.5347  11.5984  12.0219
    12.6853  12.8252  13.7672  14.1893

          k = 0.0000 0.2000 0.3333     band energies (ev):

   -41.0400 -17.6425 -17.5540 -17.4877  -9.3261  -3.3210  -2.3670  -1.9422
     5.1490   5.4729   5.8009  10.1443  10.9149  11.2067  11.2397  11.8366
    12.5170  12.8930  13.5007  14.0273

          k = 0.0000 0.2000 0.4444     band energies (ev):

   -41.0390 -17.6818 -17.5511 -17.4858  -9.2291  -3.5050  -2.3567  -1.6908
     5.2479   5.5830   5.7881   9.6003  10.5748  11.0017  11.1460  11.7258
    12.4164  13.1130  13.3619  13.7606

          k = 0.0000 0.2000 0.5556     band energies (ev):

   -41.0390 -17.6818 -17.5511 -17.4858  -9.2291  -3.5050  -2.3567  -1.6908
     5.2479   5.5830   5.7881   9.6003  10.5748  11.0017  11.1460  11.7258
    12.4164  13.1130  13.3619  13.7606

          k = 0.0000 0.2000 0.6667     band energies (ev):

   -41.0400 -17.6425 -17.5540 -17.4877  -9.3261  -3.3210  -2.3670  -1.9422
     5.1490   5.4729   5.8009  10.1443  10.9149  11.2067  11.2397  11.8366
    12.5170  12.8930  13.5007  14.0273

          k = 0.0000 0.2000 0.7778     band energies (ev):

   -41.0414 -17.5811 -17.5577 -17.4903  -9.4663  -3.0953  -2.3709  -2.2523
     5.0698   5.3161   5.7313  10.8375  11.3827  11.5347  11.5984  12.0219
    12.6853  12.8252  13.7672  14.1893

          k = 0.0000 0.2000 0.8889     band energies (ev):

   -41.0428 -17.5622 -17.5258 -17.4933  -9.5827  -3.0384  -2.4733  -2.2576
     5.0835   5.1882   5.5625  11.2980  11.7364  11.8431  12.0460  12.2889
    12.4850  13.3681  14.0746  14.1930

          k = 0.0000 0.2000 1.0000     band energies (ev):

   -41.0432 -17.5635 -17.5033 -17.4939  -9.6271  -3.0718  -2.5086  -2.2022
     5.1399   5.1422   5.4352  11.5015  11.9069  11.9236  12.1390  12.4460
    12.4588  13.5718  14.2300  14.2564

          k = 0.0000 0.4000 0.0000     band energies (ev):

   -41.0407 -17.6670 -17.4980 -17.4887  -9.3430  -3.7295  -2.4896  -1.5430
     5.3557   5.3580   6.1061   9.9210  11.2009  11.2139  11.6874  12.3003
    12.3031  12.4335  13.8184  13.8453

          k = 0.0000 0.4000 0.1111     band energies (ev):

   -41.0402 -17.6645 -17.5197 -17.4878  -9.3147  -3.6345  -2.4493  -1.6184
     5.3018   5.4194   5.9998   9.8556  11.1566  11.2575  11.3702  12.0576
    12.1182  13.0574  13.6222  13.6438

          k = 0.0000 0.4000 0.2222     band energies (ev):

   -41.0390 -17.6597 -17.5734 -17.4857  -9.2413  -3.3981  -2.3391  -1.8029
     5.1978   5.5916   5.7344   9.7619  10.5352  11.0303  11.0367  11.6729
    12.5502  13.0342  13.3213  13.9529

          k = 0.0000 0.4000 0.3333     band energies (ev):

   -41.0376 -17.6539 -17.6334 -17.4833  -9.1541  -3.1514  -2.1969  -1.9876
     5.1364   5.4510   5.8107   9.6703   9.9200  10.2367  10.8857  11.1792
    13.0714  13.0854  13.3628  14.2350

          k = 0.0000 0.4000 0.4444     band energies (ev):

   -41.0366 -17.6719 -17.6498 -17.4812  -9.0948  -3.0225  -2.1280  -2.0387
     5.1441   5.2645   5.9716   9.4570   9.5711   9.8078  10.7625  10.8741
    12.9504  13.5292  13.6430  14.2538

          k = 0.0000 0.4000 0.5556     band energies (ev):

   -41.0366 -17.6719 -17.6498 -17.4812  -9.0948  -3.0225  -2.1280  -2.0387
     5.1441   5.2645   5.9716   9.4570   9.5711   9.8078  10.7625  10.8741
    12.9504  13.5292  13.6430  14.2538

          k = 0.0000 0.4000 0.6667     band energies (ev):

   -41.0376 -17.6539 -17.6334 -17.4833  -9.1541  -3.1514  -2.1969  -1.9876
     5.1364   5.4510   5.8107   9.6703   9.9200  10.2367  10.8857  11.1792
    13.0714  13.0854  13.3628  14.2350

          k = 0.0000 0.4000 0.7778     band energies (ev):

   -41.0390 -17.6597 -17.5734 -17.4857  -9.2413  -3.3981  -2.3391  -1.8029
     5.1978   5.5916   5.7344   9.7619  10.5352  11.0303  11.0367  11.6729
    12.5502  13.0342  13.3213  13.9529

          k = 0.0000 0.4000 0.8889     band energies (ev):

   -41.0402 -17.6645 -17.5197 -17.4878  -9.3147  -3.6345  -2.4493  -1.6184
     5.3018   5.4194   5.9998   9.8556  11.1566  11.2575  11.3702  12.0576
    12.1182  13.0574  13.6222  13.6438

          k = 0.0000 0.4000 1.0000     band energies (ev):

   -41.0407 -17.6670 -17.4980 -17.4887  -9.3430  -3.7295  -2.4896  -1.5430
     5.3557   5.3580   6.1061   9.9210  11.2009  11.2139  11.6874  12.3003
    12.3031  12.4335  13.8184  13.8453

          k = 0.2000 0.2000 0.0000     band energies (ev):

   -41.0417 -17.5617 -17.5561 -17.5003  -9.4934  -3.0717  -2.3762  -2.2851
     5.0630   5.2887   5.7027  10.9470  11.5038  11.5458  11.7398  12.0723
    12.6686  12.8647  13.8607  14.1953

          k = 0.2000 0.2000 0.1111     band energies (ev):

   -41.0413 -17.5604 -17.5553 -17.5222  -9.4550  -2.9914  -2.3596  -2.3274
     5.0060   5.0505   5.9955  10.7625  11.3334  11.3375  11.8005  12.0574
    12.7317  12.8195  13.7646  14.0655

          k = 0.2000 0.2000 0.2222     band energies (ev):

   -41.0399 -17.5770 -17.5555 -17.5522  -9.3549  -2.9082  -2.3167  -2.3053
     4.8605   4.8807   6.2482  10.2974  11.1007  11.1455  11.7694  11.8707
    12.2166  13.0296  13.7478  13.8446

          k = 0.2000 0.2000 0.3333     band energies (ev):

   -41.0385 -17.6375 -17.5521 -17.5485  -9.2352  -3.0418  -2.2666  -2.0321
     4.6930   4.9503   6.1647   9.9412  10.4587  11.0765  11.5091  11.9534
    12.1242  13.0930  13.3774  13.8254

          k = 0.2000 0.2000 0.4444     band energies (ev):

   -41.0376 -17.6765 -17.5493 -17.5463  -9.1531  -3.1822  -2.2331  -1.7849
     4.5830   5.1833   5.8679   9.5508  10.2074  11.0851  11.2959  12.0353
    12.3311  13.0308  13.1435  13.6754

          k = 0.2000 0.2000 0.5556     band energies (ev):

   -41.0376 -17.6765 -17.5493 -17.5463  -9.1531  -3.1822  -2.2331  -1.7849
     4.5830   5.1833   5.8679   9.5508  10.2074  11.0851  11.2959  12.0353
    12.3311  13.0308  13.1435  13.6754

          k = 0.2000 0.2000 0.6667     band energies (ev):

   -41.0385 -17.6375 -17.5521 -17.5485  -9.2352  -3.0418  -2.2666  -2.0321
     4.6930   4.9503   6.1647   9.9412  10.4587  11.0765  11.5091  11.9534
    12.1242  13.0930  13.3774  13.8254

          k = 0.2000 0.2000 0.7778     band energies (ev):

   -41.0399 -17.5770 -17.5555 -17.5522  -9.3549  -2.9082  -2.3167  -2.3053
     4.8605   4.8807   6.2482  10.2974  11.1007  11.1455  11.7694  11.8707
    12.2166  13.0296  13.7478  13.8446

          k = 0.2000 0.2000 0.8889     band energies (ev):

   -41.0413 -17.5604 -17.5553 -17.5222  -9.4550  -2.9914  -2.3596  -2.3274
     5.0060   5.0505   5.9955  10.7625  11.3334  11.3375  11.8005  12.0574
    12.7317  12.8195  13.7646  14.0655

          k = 0.2000 0.2000 1.0000     band energies (ev):

   -41.0417 -17.5617 -17.5561 -17.5003  -9.4934  -3.0717  -2.3762  -2.2851
     5.0630   5.2887   5.7027  10.9470  11.5038  11.5458  11.7398  12.0723
    12.6686  12.8647  13.8607  14.1953

          k = 0.2000 0.4000 0.0000     band energies (ev):

   -41.0393 -17.6607 -17.5519 -17.4955  -9.2584  -3.4538  -2.3636  -1.7619
     5.2143   5.5530   5.7937   9.7773  10.7011  11.0578  11.1565  11.7715
    12.4384  12.9852  13.4228  13.8648

          k = 0.2000 0.4000 0.1111     band energies (ev):

   -41.0388 -17.6590 -17.5507 -17.5169  -9.2315  -3.3483  -2.3258  -1.7932
     4.9212   5.3681   5.9838   9.7356  10.4514  11.0940  11.2946  11.9135
    12.6115  12.8586  13.2141  13.7786

          k = 0.2000 0.4000 0.2222     band energies (ev):

   -41.0376 -17.6544 -17.5701 -17.5478  -9.1617  -3.0815  -2.2226  -1.8739
     4.5600   5.0028   5.9511   9.7024  10.2432  11.0195  11.3414  11.9942
    12.1816  13.0988  13.2423  13.7648

          k = 0.2000 0.4000 0.3333     band energies (ev):

   -41.0362 -17.6492 -17.6292 -17.5448  -9.0790  -2.7962  -2.0873  -1.9537
     4.4157   4.6458   5.5866   9.7308  10.1536  10.4004  11.4115  11.7348
    12.1692  13.2215  13.4941  14.0270

          k = 0.2000 0.4000 0.4444     band energies (ev):

   -41.0353 -17.6673 -17.6458 -17.5433  -9.0231  -2.6480  -2.0088  -1.9484
     4.3873   4.5456   5.1766   9.5556   9.7924  10.5295  11.4214  11.6420
    11.9434  13.5133  13.6654  14.1364

          k = 0.2000 0.4000 0.5556     band energies (ev):

   -41.0353 -17.6673 -17.6458 -17.5433  -9.0231  -2.6480  -2.0088  -1.9484
     4.3873   4.5456   5.1766   9.5556   9.7924  10.5295  11.4214  11.6420
    11.9434  13.5133  13.6654  14.1364

          k = 0.2000 0.4000 0.6667     band energies (ev):

   -41.0362 -17.6492 -17.6292 -17.5448  -9.0790  -2.7962  -2.0873  -1.9537
     4.4157   4.6458   5.5866   9.7308  10.1536  10.4004  11.4115  11.7348
    12.1692  13.2215  13.4941  14.0270

          k = 0.2000 0.4000 0.7778     band energies (ev):

   -41.0376 -17.6544 -17.5701 -17.5478  -9.1617  -3.0815  -2.2226  -1.8739
     4.5600   5.0028   5.9511   9.7024  10.2432  11.0195  11.3414  11.9942
    12.1816  13.0988  13.2423  13.7648

          k = 0.2000 0.4000 0.8889     band energies (ev):

   -41.0388 -17.6590 -17.5507 -17.5169  -9.2315  -3.3483  -2.3258  -1.7932
     4.9212   5.3681   5.9838   9.7356  10.4514  11.0940  11.2946  11.9135
    12.6115  12.8586  13.2141  13.7786

          k = 0.2000 0.4000 1.0000     band energies (ev):

   -41.0393 -17.6607 -17.5519 -17.4955  -9.2584  -3.4538  -2.3636  -1.7619
     5.2143   5.5530   5.7937   9.7773  10.7011  11.0578  11.1565  11.7715
    12.4384  12.9852  13.4228  13.8648

          k = 0.4000 0.4000 0.0000     band energies (ev):

   -41.0369 -17.6520 -17.6499 -17.4914  -9.1126  -3.0641  -2.1329  -2.0394
     5.1318   5.3212   5.9243   9.5447   9.7462   9.8482  10.8269  10.9665
    12.9845  13.3754  13.5397  14.2710

          k = 0.4000 0.4000 0.1111     band energies (ev):

   -41.0364 -17.6507 -17.6485 -17.5122  -9.0883  -2.9410  -2.0958  -2.0139
     4.9155   4.9313   5.7608   9.6554   9.8365   9.9265  11.1038  11.3269
    12.5211  13.3611  13.5596  14.2168

          k = 0.4000 0.4000 0.2222     band energies (ev):

   -41.0354 -17.6470 -17.6453 -17.5651  -9.0254  -2.6174  -1.9972  -1.9486
     4.2909   4.4228   5.1890   9.7063   9.8284  10.6234  11.3442  11.7048
    12.1166  13.3995  13.6374  14.0931

          k = 0.4000 0.4000 0.3333     band energies (ev):

   -41.0339 -17.6424 -17.6407 -17.6225  -8.9513  -2.2287  -1.8756  -1.8686
     3.8328   3.9244   4.5098   9.7328   9.8314  10.2479  11.5119  12.2341
    12.3721  13.6986  13.8091  13.9822

          k = 0.4000 0.4000 0.4444     band energies (ev):

   -41.0330 -17.6600 -17.6395 -17.6383  -8.9016  -1.9838  -1.7903  -1.7899
     3.6211   3.6976   3.9985   9.5593   9.7863   9.8355  11.9929  12.4339
    12.4750  13.9001  13.9879  14.0287

          k = 0.4000 0.4000 0.5556     band energies (ev):

   -41.0330 -17.6600 -17.6395 -17.6383  -8.9016  -1.9838  -1.7903  -1.7899
     3.6211   3.6976   3.9985   9.5593   9.7863   9.8355  11.9929  12.4339
    12.4750  13.9001  13.9879  14.0287

          k = 0.4000 0.4000 0.6667     band energies (ev):

   -41.0339 -17.6424 -17.6407 -17.6225  -8.9513  -2.2287  -1.8756  -1.8686
     3.8328   3.9244   4.5098   9.7328   9.8314  10.2479  11.5119  12.2341
    12.3721  13.6986  13.8091  13.9822

          k = 0.4000 0.4000 0.7778     band energies (ev):

   -41.0354 -17.6470 -17.6453 -17.5651  -9.0254  -2.6174  -1.9972  -1.9486
     4.2909   4.4228   5.1890   9.7063   9.8284  10.6234  11.3442  11.7048
    12.1166  13.3995  13.6374  14.0931

          k = 0.4000 0.4000 0.8889     band energies (ev):

   -41.0364 -17.6507 -17.6485 -17.5122  -9.0883  -2.9410  -2.0958  -2.0139
     4.9155   4.9313   5.7608   9.6554   9.8365   9.9265  11.1038  11.3269
    12.5211  13.3611  13.5596  14.2168

          k = 0.4000 0.4000 1.0000     band energies (ev):

   -41.0369 -17.6520 -17.6499 -17.4914  -9.1126  -3.0641  -2.1329  -2.0394
     5.1318   5.3212   5.9243   9.5447   9.7462   9.8482  10.8269  10.9665
    12.9845  13.3754  13.5397  14.2710



               ==================================================
                            POLARIZATION CALCULATION
                         !!! NOT THOROUGHLY TESTED !!!
               --------------------------------------------------


                     K-POINTS STRINGS USED IN CALCULATIONS
                     ~~~~~~~~~~~~~~~~~~~~~~~~~~~~~~~~~~~~~

       G-vector along string (2 pi/a):  0.00000  0.00000  1.00000
       Modulus of the vector (1/bohr):  0.90597
       Number of k-points per string:  10
       Number of different strings  :   6


                               IONIC POLARIZATION
                               ~~~~~~~~~~~~~~~~~~

        Note: (mod 1) means that the phases (angles ranging from
        -pi to pi) have been mapped to the interval [-1/2,+1/2) by
        dividing by 2*pi; (mod 2) refers to the interval [-1,+1)

  ============================================================================
    Ion    Species    Charge              Position                Phase
  ----------------------------------------------------------------------------
     1        Ba      10.000       0.0000  0.0000  0.0000     0.00000 (mod 2)
     2        Ti      12.000       0.5000  0.5000  0.5100     0.12000 (mod 2)
     3        O        6.000       0.5000  0.5000  0.0000     0.00000 (mod 2)
     4        O        6.000       0.5000  0.0000  0.5000    -1.00000 (mod 2)
     5        O        6.000       0.0000  0.5000  0.5000    -1.00000 (mod 2)
  ----------------------------------------------------------------------------
                                               IONIC PHASE:   0.12000 (mod 2)
  ============================================================================


                            ELECTRONIC POLARIZATION
                            ~~~~~~~~~~~~~~~~~~~~~~~

        Note: (mod 1) means that the phases (angles ranging from
        -pi to pi) have been mapped to the interval [-1/2,+1/2) by
        dividing by 2*pi; (mod 2) refers to the interval [-1,+1)

  ============================================================================
   Spin    String     Weight      First k-point in string         Phase
  ----------------------------------------------------------------------------
    up        1      0.040000      0.0000  0.0000  0.0000     0.00468 (mod 1)
    up        2      0.160000      0.0000  0.2000  0.0000    -0.01041 (mod 1)
    up        3      0.160000      0.0000  0.4000  0.0000    -0.01748 (mod 1)
    up        4      0.160000      0.2000  0.2000  0.0000    -0.02445 (mod 1)
    up        5      0.320000      0.2000  0.4000  0.0000    -0.03097 (mod 1)
    up        6      0.160000      0.4000  0.4000  0.0000    -0.03693 (mod 1)
  ----------------------------------------------------------------------------
   down       1      0.040000      0.0000  0.0000  0.0000     0.00468 (mod 1)
   down       2      0.160000      0.0000  0.2000  0.0000    -0.01041 (mod 1)
   down       3      0.160000      0.0000  0.4000  0.0000    -0.01748 (mod 1)
   down       4      0.160000      0.2000  0.2000  0.0000    -0.02445 (mod 1)
   down       5      0.320000      0.2000  0.4000  0.0000    -0.03097 (mod 1)
   down       6      0.160000      0.4000  0.4000  0.0000    -0.03693 (mod 1)
  ----------------------------------------------------------------------------
                                        Average phase (up):  -0.02401 (mod 1)
                                      Average phase (down):  -0.02401 (mod 1)
                                          ELECTRONIC PHASE:  -0.04801 (mod 2)
  ============================================================================


                               SUMMARY OF PHASES
                               ~~~~~~~~~~~~~~~~~

                          Ionic Phase:  0.12000 (mod 2)
                     Electronic Phase: -0.04801 (mod 2)
                          TOTAL PHASE:  0.07199 (mod 2)


                             VALUES OF POLARIZATION
                             ~~~~~~~~~~~~~~~~~~~~~~

        The calculation of phases done along the direction of vector 3
        of the reciprocal lattice gives the following contribution to
        the polarization vector (in different units, and being Omega
        the volume of the unit cell):

           P =   0.4992381  (mod  13.8705940)  (e/Omega).bohr

           P =   0.0014966  (mod   0.0415815)  e/bohr^2

           P =   0.0855645  (mod   2.3772844)  C/m^2

        The polarization direction is:  ( 0.00000 , 0.00000 , 1.00000 )


               ==================================================



     Writing output data file batio3.save
 
     init_run     :      1.89s CPU      1.92s WALL (       1 calls)
     electrons    :     31.11s CPU     31.31s WALL (       1 calls)

     Called by init_run:
     wfcinit      :      0.00s CPU      0.00s WALL (       1 calls)
     potinit      :      0.05s CPU      0.06s WALL (       1 calls)

     Called by electrons:
     c_bands      :     28.55s CPU     28.72s WALL (       1 calls)
     v_of_rho     :      0.04s CPU      0.05s WALL (       1 calls)
     newd         :      0.21s CPU      0.22s WALL (       1 calls)

     Called by c_bands:
     init_us_2    :      0.16s CPU      0.20s WALL (     168 calls)
     cegterg      :     25.17s CPU     25.31s WALL (      60 calls)

     Called by *egterg:
     h_psi        :     19.31s CPU     19.43s WALL (    1008 calls)
     s_psi        :      1.18s CPU      1.18s WALL (    1008 calls)
     g_psi        :      0.35s CPU      0.36s WALL (     888 calls)
     cdiaghg      :      2.23s CPU      2.17s WALL (     948 calls)

     Called by h_psi:
     add_vuspsi   :      1.15s CPU      1.18s WALL (    1008 calls)

     General routines
     calbec       :      1.49s CPU      1.45s WALL (    1116 calls)
     fft          :      0.03s CPU      0.02s WALL (      13 calls)
     ffts         :      0.00s CPU      0.00s WALL (       1 calls)
     fftw         :     14.71s CPU     14.80s WALL (   32204 calls)
     interpolate  :      0.00s CPU      0.00s WALL (       1 calls)
     davcio       :      0.07s CPU      0.05s WALL (     168 calls)
 
 
     PWSCF        :    33.41s CPU        33.74s WALL

 
   This run was terminated on:  12: 8: 8  10Jul2014            

=------------------------------------------------------------------------------=
   JOB DONE.
=------------------------------------------------------------------------------=
