
     Program PWSCF v.4.3.2      starts on 10Jul2014 at 12:32: 5 

     This program is part of the open-source Quantum ESPRESSO suite
     for quantum simulation of materials; please cite
         "P. Giannozzi et al., J. Phys.:Condens. Matter 21 395502 (2009);
          URL http://www.quantum-espresso.org", 
     in publications or presentations arising from this work. More details at
     http://www.quantum-espresso.org/wiki/index.php/Citing_Quantum-ESPRESSO

     Current dimensions of program PWSCF are:
     Max number of different atomic species (ntypx) = 10
     Max number of k-points (npk) =  40000
     Max angular momentum in pseudopotentials (lmaxx) =  3
     Waiting for input...
     Reading input from stdin
Warning: card   &IONS ignored
Warning: card   / ignored
Warning: card   &CELL ignored
Warning: card   / ignored
               file O.pbe-rrkjus.UPF: wavefunction(s)  2S renormalized
 
     G-vector sticks info
     --------------------
     sticks:   dense  smooth     PW     G-vecs:    dense   smooth      PW
     Sum         925     465    145                20863     7441    1309
 


     bravais-lattice index     =            1
     lattice parameter (alat)  =       6.9353  a.u.
     unit-cell volume          =     333.5763 (a.u.)^3
     number of atoms/cell      =            5
     number of atomic types    =            3
     number of electrons       =        40.00
     number of Kohn-Sham states=           20
     kinetic-energy cutoff     =      30.0000  Ry
     charge density cutoff     =     240.0000  Ry
     convergence threshold     =      1.0E-08
     mixing beta               =       0.7000
     number of iterations used =            8  plain     mixing
     Exchange-correlation      =  SLA  PW   PBE  PBE ( 1 4 3 4 0)
     EXX-fraction              =        0.00

     celldm(1)=   6.935297  celldm(2)=   0.000000  celldm(3)=   0.000000
     celldm(4)=   0.000000  celldm(5)=   0.000000  celldm(6)=   0.000000

     crystal axes: (cart. coord. in units of alat)
               a(1) = (   1.000000   0.000000   0.000000 )  
               a(2) = (   0.000000   1.000000   0.000000 )  
               a(3) = (   0.000000   0.000000   1.000000 )  

     reciprocal axes: (cart. coord. in units 2 pi/alat)
               b(1) = (  1.000000  0.000000  0.000000 )  
               b(2) = (  0.000000  1.000000  0.000000 )  
               b(3) = (  0.000000  0.000000  1.000000 )  


     PseudoPot. # 1 for Ba read from file:
     ../../pseudo/Ba.pbe-nsp-van.UPF
     MD5 check sum: a011de417d3466d8e94df216395bc359
     Pseudo is Ultrasoft + core correction, Zval = 10.0
     Generated by new atomic code, or converted to UPF format
     Using radial grid of  907 points,  6 beta functions with: 
                l(1) =   0
                l(2) =   0
                l(3) =   1
                l(4) =   1
                l(5) =   2
                l(6) =   2
     Q(r) pseudized with  6 coefficients,  rinner =    1.200   1.200   1.200
                                                       1.200   1.200

     PseudoPot. # 2 for Ti read from file:
     ../../pseudo/Ti.pbe-sp-van_ak.UPF
     MD5 check sum: 8e4df49b7f0d34bbd5052bf3f5ea0213
     Pseudo is Ultrasoft, Zval = 12.0
     Generated by new atomic code, or converted to UPF format
     Using radial grid of  851 points,  6 beta functions with: 
                l(1) =   0
                l(2) =   0
                l(3) =   1
                l(4) =   1
                l(5) =   2
                l(6) =   2
     Q(r) pseudized with  8 coefficients,  rinner =    1.000   1.000   1.000
                                                       1.000   1.000

     PseudoPot. # 3 for O  read from file:
     ../../pseudo/O.pbe-rrkjus.UPF
     MD5 check sum: 390ba29e75625707450f3bd3f0eb6be9
     Pseudo is Ultrasoft, Zval =  6.0
     Generated by new atomic code, or converted to UPF format
     Using radial grid of 1269 points,  4 beta functions with: 
                l(1) =   0
                l(2) =   0
                l(3) =   1
                l(4) =   1
     Q(r) pseudized with 0 coefficients 


     atomic species   valence    mass     pseudopotential
        Ba            10.00   137.34000     Ba( 1.00)
        Ti            12.00    47.90000     Ti( 1.00)
        O              6.00    16.00000     O ( 1.00)

      8 Sym.Ops. (no inversion)


   Cartesian axes

     site n.     atom                  positions (alat units)
         1           Ba  tau(   1) = (   0.0000000   0.0000000   0.0000000  )
         2           Ti  tau(   2) = (   0.5000000   0.5000000   0.5100000  )
         3           O   tau(   3) = (   0.5000000   0.5000000   0.0000000  )
         4           O   tau(   4) = (   0.5000000   0.0000000   0.5000000  )
         5           O   tau(   5) = (   0.0000000   0.5000000   0.5000000  )

     number of k points=    18
                       cart. coord. in units 2pi/alat
        k(    1) = (   0.0000000   0.0000000   0.0000000), wk =   0.0160000
        k(    2) = (   0.0000000   0.0000000   0.2000000), wk =   0.0320000
        k(    3) = (   0.0000000   0.0000000   0.4000000), wk =   0.0320000
        k(    4) = (   0.0000000   0.2000000   0.2000000), wk =   0.1280000
        k(    5) = (   0.0000000   0.2000000   0.4000000), wk =   0.1280000
        k(    6) = (   0.0000000   0.4000000   0.4000000), wk =   0.1280000
        k(    7) = (   0.2000000   0.2000000   0.2000000), wk =   0.1280000
        k(    8) = (   0.2000000   0.2000000   0.4000000), wk =   0.1280000
        k(    9) = (   0.2000000   0.4000000   0.4000000), wk =   0.2560000
        k(   10) = (   0.4000000   0.4000000   0.4000000), wk =   0.1280000
        k(   11) = (   0.2000000   0.0000000   0.0000000), wk =   0.0640000
        k(   12) = (   0.4000000   0.0000000   0.0000000), wk =   0.0640000
        k(   13) = (   0.2000000  -0.2000000   0.0000000), wk =   0.0640000
        k(   14) = (   0.4000000  -0.2000000   0.0000000), wk =   0.1280000
        k(   15) = (   0.0000000   0.4000000   0.2000000), wk =   0.1280000
        k(   16) = (   0.4000000  -0.4000000   0.0000000), wk =   0.0640000
        k(   17) = (   0.4000000  -0.2000000   0.2000000), wk =   0.2560000
        k(   18) = (   0.4000000  -0.4000000   0.2000000), wk =   0.1280000

     Dense  grid:    20863 G-vectors     FFT dimensions: (  36,  36,  36)

     Smooth grid:     7441 G-vectors     FFT dimensions: (  25,  25,  25)

     Largest allocated arrays     est. size (Mb)     dimensions
        Kohn-Sham Wavefunctions         0.29 Mb     (    935,   20)
        NL pseudopotentials             0.86 Mb     (    935,   60)
        Each V/rho on FFT grid          0.71 Mb     (  46656)
        Each G-vector array             0.16 Mb     (  20863)
        G-vector shells                 0.00 Mb     (    246)
     Largest temporary arrays     est. size (Mb)     dimensions
        Auxiliary wavefunctions         1.14 Mb     (    935,   80)
        Each subspace H/S matrix        0.10 Mb     (  80,  80)
        Each <psi_i|beta_j> matrix      0.02 Mb     (     60,   20)
        Arrays for rho mixing           5.70 Mb     (  46656,   8)

     Check: negative/imaginary core charge=   -0.000001    0.000000

     Initial potential from superposition of free atoms

     starting charge   38.98495, renormalised to   40.00000
     Starting wfc are   35 atomic wfcs

     total cpu time spent up to now is        3.1 secs

     per-process dynamical memory:    26.1 Mb

     Self-consistent Calculation

     iteration #  1     ecut=    30.00 Ry     beta=0.70
     Davidson diagonalization with overlap
     ethr =  1.00E-02,  avg # of iterations =  2.0

     total cpu time spent up to now is        5.2 secs

     total energy              =    -302.66883111 Ry
     Harris-Foulkes estimate   =    -303.30050842 Ry
     estimated scf accuracy    <       0.82185358 Ry

     iteration #  2     ecut=    30.00 Ry     beta=0.70
     Davidson diagonalization with overlap
     ethr =  2.05E-03,  avg # of iterations =  4.9

     total cpu time spent up to now is        8.4 secs

     total energy              =    -302.26665910 Ry
     Harris-Foulkes estimate   =    -303.71951930 Ry
     estimated scf accuracy    <       4.38071916 Ry

     iteration #  3     ecut=    30.00 Ry     beta=0.70
     Davidson diagonalization with overlap
     ethr =  2.05E-03,  avg # of iterations =  4.0

     total cpu time spent up to now is       11.2 secs

     total energy              =    -303.11814403 Ry
     Harris-Foulkes estimate   =    -303.17158372 Ry
     estimated scf accuracy    <       0.14572480 Ry

     iteration #  4     ecut=    30.00 Ry     beta=0.70
     Davidson diagonalization with overlap
     ethr =  3.64E-04,  avg # of iterations =  2.2

     total cpu time spent up to now is       13.3 secs

     total energy              =    -303.11401444 Ry
     Harris-Foulkes estimate   =    -303.13051438 Ry
     estimated scf accuracy    <       0.04117104 Ry

     iteration #  5     ecut=    30.00 Ry     beta=0.70
     Davidson diagonalization with overlap
     ethr =  1.03E-04,  avg # of iterations =  3.4

     total cpu time spent up to now is       15.8 secs

     total energy              =    -303.12663796 Ry
     Harris-Foulkes estimate   =    -303.12697341 Ry
     estimated scf accuracy    <       0.00231121 Ry

     iteration #  6     ecut=    30.00 Ry     beta=0.70
     Davidson diagonalization with overlap
     ethr =  5.78E-06,  avg # of iterations =  2.1

     total cpu time spent up to now is       17.9 secs

     total energy              =    -303.12629867 Ry
     Harris-Foulkes estimate   =    -303.12676609 Ry
     estimated scf accuracy    <       0.00131999 Ry

     iteration #  7     ecut=    30.00 Ry     beta=0.70
     Davidson diagonalization with overlap
     ethr =  3.30E-06,  avg # of iterations =  3.0

     total cpu time spent up to now is       20.2 secs

     total energy              =    -303.12654773 Ry
     Harris-Foulkes estimate   =    -303.12654822 Ry
     estimated scf accuracy    <       0.00000122 Ry

     iteration #  8     ecut=    30.00 Ry     beta=0.70
     Davidson diagonalization with overlap
     ethr =  3.04E-09,  avg # of iterations =  4.9

     total cpu time spent up to now is       23.6 secs

     total energy              =    -303.12655106 Ry
     Harris-Foulkes estimate   =    -303.12655158 Ry
     estimated scf accuracy    <       0.00000229 Ry

     iteration #  9     ecut=    30.00 Ry     beta=0.70
     Davidson diagonalization with overlap
     ethr =  3.04E-09,  avg # of iterations =  2.7

     total cpu time spent up to now is       25.9 secs

     total energy              =    -303.12655107 Ry
     Harris-Foulkes estimate   =    -303.12655122 Ry
     estimated scf accuracy    <       0.00000065 Ry

     iteration # 10     ecut=    30.00 Ry     beta=0.70
     Davidson diagonalization with overlap
     ethr =  1.63E-09,  avg # of iterations =  2.7

     total cpu time spent up to now is       28.0 secs

     total energy              =    -303.12655104 Ry
     Harris-Foulkes estimate   =    -303.12655112 Ry
     estimated scf accuracy    <       0.00000018 Ry

     iteration # 11     ecut=    30.00 Ry     beta=0.70
     Davidson diagonalization with overlap
     ethr =  4.51E-10,  avg # of iterations =  3.6

     total cpu time spent up to now is       30.5 secs

     total energy              =    -303.12655110 Ry
     Harris-Foulkes estimate   =    -303.12655110 Ry
     estimated scf accuracy    <       0.00000001 Ry

     iteration # 12     ecut=    30.00 Ry     beta=0.70
     Davidson diagonalization with overlap
     ethr =  3.44E-11,  avg # of iterations =  2.8

     total cpu time spent up to now is       32.7 secs

     End of self-consistent calculation

          k = 0.0000 0.0000 0.0000 (   925 PWs)   bands (ev):

   -41.0443 -17.5063 -17.4969 -17.4969  -9.7861  -2.6980  -2.5217  -2.5158
     5.0174   5.0174   5.0199  12.4626  12.4626  12.4756  12.5235  12.5235
    12.5300  14.5879  14.5879  14.5981

          k = 0.0000 0.0000 0.2000 (   920 PWs)   bands (ev):

   -41.0427 -17.5725 -17.4935 -17.4935  -9.6271  -3.0677  -2.5043  -2.2106
     5.1394   5.1394   5.4378  11.5100  11.9019  11.9019  12.1501  12.4477
    12.4477  13.5804  14.2494  14.2494

          k = 0.0000 0.0000 0.4000 (   912 PWs)   bands (ev):

   -41.0403 -17.6760 -17.4883 -17.4883  -9.3430  -3.7256  -2.4853  -1.5501
     5.3541   5.3541   6.1095   9.9081  11.2033  11.2033  11.7031  12.2856
    12.2856  12.4378  13.8561  13.8561

          k = 0.0000 0.2000 0.2000 (   919 PWs)   bands (ev):

   -41.0413 -17.5687 -17.5577 -17.4905  -9.4933  -3.0662  -2.3805  -2.2860
     5.0641   5.2861   5.7037  10.9471  11.4856  11.6164  11.6640  12.0689
    12.6679  12.9063  13.8302  14.1985

          k = 0.0000 0.2000 0.4000 (   918 PWs)   bands (ev):

   -41.0388 -17.6696 -17.5514 -17.4858  -9.2583  -3.4488  -2.3605  -1.7685
     5.2137   5.5496   5.7973   9.7668  10.6764  11.0725  11.1544  11.7589
    12.4477  13.0231  13.4005  13.8644

          k = 0.0000 0.4000 0.4000 (   924 PWs)   bands (ev):

   -41.0365 -17.6601 -17.6505 -17.4816  -9.1126  -3.0568  -2.1363  -2.0413
     5.1336   5.3240   5.9220   9.5349   9.7297   9.8648  10.8056  10.9588
    12.9837  13.3900  13.5496  14.2695

          k = 0.2000 0.2000 0.2000 (   925 PWs)   bands (ev):

   -41.0398 -17.5650 -17.5557 -17.5527  -9.3781  -2.9073  -2.3319  -2.3268
     4.8939   4.8960   6.2217  10.3861  11.1746  11.1798  11.8306  11.8559
    12.3097  12.9968  13.8199  13.8247

          k = 0.2000 0.2000 0.4000 (   922 PWs)   bands (ev):

   -41.0374 -17.6644 -17.5496 -17.5465  -9.1778  -3.1385  -2.2433  -1.8621
     4.6157   5.0843   5.9894   9.6949  10.2482  11.0785  11.3624  12.0065
    12.2519  13.0680  13.2034  13.7352

          k = 0.2000 0.4000 0.4000 (   935 PWs)   bands (ev):

   -41.0351 -17.6559 -17.6463 -17.5433  -9.0398  -2.6868  -2.0237  -1.9650
     4.4123   4.5316   5.3226   9.6956   9.8267  10.4625  11.4785  11.5893
    12.0558  13.3904  13.6288  14.1146

          k = 0.4000 0.4000 0.4000 (   934 PWs)   bands (ev):

   -41.0328 -17.6486 -17.6396 -17.6387  -8.9164  -2.0517  -1.8204  -1.8162
     3.7099   3.7122   4.1694   9.6970   9.8343   9.8373  11.8581  12.4127
    12.4131  13.8996  13.9016  13.9764

          k = 0.2000 0.0000 0.0000 (   920 PWs)   bands (ev):

   -41.0427 -17.5631 -17.5029 -17.4935  -9.6270  -3.0719  -2.5088  -2.2023
     5.1399   5.1422   5.4352  11.5015  11.9067  11.9235  12.1388  12.4459
    12.4587  13.5717  14.2298  14.2562

          k = 0.4000 0.0000 0.0000 (   912 PWs)   bands (ev):

   -41.0403 -17.6666 -17.4976 -17.4883  -9.3429  -3.7297  -2.4898  -1.5432
     5.3557   5.3581   6.1061   9.9209  11.2007  11.2137  11.6872  12.3002
    12.3030  12.4333  13.8182  13.8451

          k = 0.2000-0.2000 0.0000 (   919 PWs)   bands (ev):

   -41.0413 -17.5613 -17.5557 -17.4999  -9.4933  -3.0718  -2.3764  -2.2853
     5.0630   5.2887   5.7027  10.9469  11.5037  11.5457  11.7397  12.0722
    12.6684  12.8645  13.8606  14.1951

          k = 0.4000-0.2000 0.0000 (   918 PWs)   bands (ev):

   -41.0388 -17.6603 -17.5515 -17.4951  -9.2583  -3.4540  -2.3638  -1.7620
     5.2143   5.5531   5.7937   9.7773  10.7009  11.0577  11.1564  11.7714
    12.4383  12.9850  13.4227  13.8646

          k = 0.0000 0.4000 0.2000 (   918 PWs)   bands (ev):

   -41.0388 -17.6603 -17.5608 -17.4858  -9.2583  -3.4514  -2.3655  -1.7621
     5.2173   5.5508   5.7940   9.7780  10.6922  11.0651  11.1357  11.7731
    12.4492  13.0166  13.3838  13.8659

          k = 0.4000-0.4000 0.0000 (   924 PWs)   bands (ev):

   -41.0365 -17.6516 -17.6495 -17.4910  -9.1126  -3.0643  -2.1331  -2.0396
     5.1318   5.3212   5.9243   9.5446   9.7461   9.8482  10.8268  10.9664
    12.9844  13.3752  13.5395  14.2708

          k = 0.4000-0.2000 0.2000 (   922 PWs)   bands (ev):

   -41.0374 -17.6550 -17.5577 -17.5477  -9.1777  -3.1422  -2.2475  -1.8557
     4.6180   5.0817   5.9899   9.7026  10.2630  11.0818  11.3589  11.9928
    12.2458  13.0623  13.2121  13.7335

          k = 0.4000-0.4000 0.2000 (   935 PWs)   bands (ev):

   -41.0351 -17.6474 -17.6454 -17.5527  -9.0398  -2.6931  -2.0204  -1.9638
     4.4125   4.5299   5.3236   9.6992   9.8289  10.4691  11.5056  11.5783
    12.0569  13.3747  13.6151  14.1196

!    total energy              =    -303.12655110 Ry
     Harris-Foulkes estimate   =    -303.12655110 Ry
     estimated scf accuracy    <          1.4E-09 Ry

     The total energy is the sum of the following terms:

     one-electron contribution =     -45.26225154 Ry
     hartree contribution      =      53.34725950 Ry
     xc contribution           =     -85.11776492 Ry
     ewald contribution        =    -226.09379413 Ry

     convergence has been achieved in  12 iterations

     Writing output data file batio3.save
 
     init_run     :      2.95s CPU      2.98s WALL (       1 calls)
     electrons    :     29.17s CPU     29.58s WALL (       1 calls)

     Called by init_run:
     wfcinit      :      0.88s CPU      0.89s WALL (       1 calls)
     potinit      :      0.07s CPU      0.08s WALL (       1 calls)

     Called by electrons:
     c_bands      :     20.39s CPU     20.64s WALL (      12 calls)
     sum_band     :      5.48s CPU      5.57s WALL (      12 calls)
     v_of_rho     :      0.63s CPU      0.64s WALL (      13 calls)
     newd         :      2.73s CPU      2.79s WALL (      13 calls)
     mix_rho      :      0.08s CPU      0.08s WALL (      12 calls)

     Called by c_bands:
     init_us_2    :      0.48s CPU      0.51s WALL (     450 calls)
     cegterg      :     19.07s CPU     19.18s WALL (     216 calls)

     Called by *egterg:
     h_psi        :     14.46s CPU     14.42s WALL (     921 calls)
     s_psi        :      0.84s CPU      0.94s WALL (     921 calls)
     g_psi        :      0.20s CPU      0.21s WALL (     687 calls)
     cdiaghg      :      1.52s CPU      1.41s WALL (     903 calls)

     Called by h_psi:
     add_vuspsi   :      0.99s CPU      0.94s WALL (     921 calls)

     General routines
     calbec       :      1.33s CPU      1.38s WALL (    1137 calls)
     fft          :      0.34s CPU      0.37s WALL (     204 calls)
     ffts         :      0.02s CPU      0.02s WALL (      25 calls)
     fftw         :     12.48s CPU     12.53s WALL (   29460 calls)
     interpolate  :      0.09s CPU      0.08s WALL (      25 calls)
     davcio       :      0.16s CPU      0.14s WALL (     666 calls)
 
 
     PWSCF        :    32.38s CPU        32.90s WALL

 
   This run was terminated on:  12:32:38  10Jul2014            

=------------------------------------------------------------------------------=
   JOB DONE.
=------------------------------------------------------------------------------=
