
     Program PWSCF v.4.3.2      starts on 10Jul2014 at 10:58:17 

     This program is part of the open-source Quantum ESPRESSO suite
     for quantum simulation of materials; please cite
         "P. Giannozzi et al., J. Phys.:Condens. Matter 21 395502 (2009);
          URL http://www.quantum-espresso.org", 
     in publications or presentations arising from this work. More details at
     http://www.quantum-espresso.org/wiki/index.php/Citing_Quantum-ESPRESSO

     Current dimensions of program PWSCF are:
     Max number of different atomic species (ntypx) = 10
     Max number of k-points (npk) =  40000
     Max angular momentum in pseudopotentials (lmaxx) =  3
     Waiting for input...
     Reading input from stdin
Warning: card   &IONS ignored
Warning: card   / ignored
Warning: card   &CELL ignored
Warning: card   / ignored
               file O.pbe-rrkjus.UPF: wavefunction(s)  2S renormalized

     Atomic positions and unit cell read from directory:
     tmp-sy/symm.save/
 
 
     G-vector sticks info
     --------------------
     sticks:   dense  smooth     PW     G-vecs:    dense   smooth      PW
     Sum        1069     529    185                26729     9467    1895
 


     bravais-lattice index     =            6
     lattice parameter (alat)  =       7.4706  a.u.
     unit-cell volume          =     426.7485 (a.u.)^3
     number of atoms/cell      =            5
     number of atomic types    =            3
     number of electrons       =        40.00
     number of Kohn-Sham states=           20
     kinetic-energy cutoff     =      30.0000  Ry
     charge density cutoff     =     240.0000  Ry
     Exchange-correlation      =  SLA  PW   PBE  PBE ( 1 4 3 4 0)
     EXX-fraction              =        0.00

     celldm(1)=   7.470580  celldm(2)=   0.000000  celldm(3)=   1.023550
     celldm(4)=   0.000000  celldm(5)=   0.000000  celldm(6)=   0.000000

     crystal axes: (cart. coord. in units of alat)
               a(1) = (   1.000000   0.000000   0.000000 )  
               a(2) = (   0.000000   1.000000   0.000000 )  
               a(3) = (   0.000000   0.000000   1.023550 )  

     reciprocal axes: (cart. coord. in units 2 pi/alat)
               b(1) = (  1.000000  0.000000  0.000000 )  
               b(2) = (  0.000000  1.000000  0.000000 )  
               b(3) = (  0.000000  0.000000  0.976992 )  


     PseudoPot. # 1 for Ba read from file:
     tmp-sy/symm.save/Ba.pbe-nsp-van.UPF
     MD5 check sum: a011de417d3466d8e94df216395bc359
     Pseudo is Ultrasoft + core correction, Zval = 10.0
     Generated by new atomic code, or converted to UPF format
     Using radial grid of  907 points,  6 beta functions with: 
                l(1) =   0
                l(2) =   0
                l(3) =   1
                l(4) =   1
                l(5) =   2
                l(6) =   2
     Q(r) pseudized with  6 coefficients,  rinner =    1.200   1.200   1.200
                                                       1.200   1.200

     PseudoPot. # 2 for Ti read from file:
     tmp-sy/symm.save/Ti.pbe-sp-van_ak.UPF
     MD5 check sum: 8e4df49b7f0d34bbd5052bf3f5ea0213
     Pseudo is Ultrasoft, Zval = 12.0
     Generated by new atomic code, or converted to UPF format
     Using radial grid of  851 points,  6 beta functions with: 
                l(1) =   0
                l(2) =   0
                l(3) =   1
                l(4) =   1
                l(5) =   2
                l(6) =   2
     Q(r) pseudized with  8 coefficients,  rinner =    1.000   1.000   1.000
                                                       1.000   1.000

     PseudoPot. # 3 for O  read from file:
     tmp-sy/symm.save/O.pbe-rrkjus.UPF
     MD5 check sum: 390ba29e75625707450f3bd3f0eb6be9
     Pseudo is Ultrasoft, Zval =  6.0
     Generated by new atomic code, or converted to UPF format
     Using radial grid of 1269 points,  4 beta functions with: 
                l(1) =   0
                l(2) =   0
                l(3) =   1
                l(4) =   1
     Q(r) pseudized with 0 coefficients 


     atomic species   valence    mass     pseudopotential
        Ba            10.00   137.34000     Ba( 1.00)
        Ti            12.00    47.90000     Ti( 1.00)
        O              6.00    16.00000     O ( 1.00)

     No symmetry found

   Cartesian axes

     site n.     atom                  positions (alat units)
         1           Ba  tau(   1) = (   0.0000000   0.0000000   0.0000000  )
         2           Ti  tau(   2) = (   0.5000000   0.5000000   0.5117750  )
         3           O   tau(   3) = (   0.5000000   0.5000000   0.0000000  )
         4           O   tau(   4) = (   0.5000000   0.0000000   0.5117750  )
         5           O   tau(   5) = (   0.0000000   0.5000000   0.5117750  )

     number of k points=    60
                       cart. coord. in units 2pi/alat
        k(    1) = (   0.0000000   0.0000000   0.0000000), wk =   0.0080000
        k(    2) = (   0.0000000   0.0000000   0.1085546), wk =   0.0080000
        k(    3) = (   0.0000000   0.0000000   0.2171093), wk =   0.0080000
        k(    4) = (   0.0000000   0.0000000   0.3256639), wk =   0.0080000
        k(    5) = (   0.0000000   0.0000000   0.4342186), wk =   0.0080000
        k(    6) = (   0.0000000   0.0000000   0.5427732), wk =   0.0080000
        k(    7) = (   0.0000000   0.0000000   0.6513279), wk =   0.0080000
        k(    8) = (   0.0000000   0.0000000   0.7598825), wk =   0.0080000
        k(    9) = (   0.0000000   0.0000000   0.8684372), wk =   0.0080000
        k(   10) = (   0.0000000   0.0000000   0.9769918), wk =   0.0080000
        k(   11) = (   0.0000000   0.2000000   0.0000000), wk =   0.0320000
        k(   12) = (   0.0000000   0.2000000   0.1085546), wk =   0.0320000
        k(   13) = (   0.0000000   0.2000000   0.2171093), wk =   0.0320000
        k(   14) = (   0.0000000   0.2000000   0.3256639), wk =   0.0320000
        k(   15) = (   0.0000000   0.2000000   0.4342186), wk =   0.0320000
        k(   16) = (   0.0000000   0.2000000   0.5427732), wk =   0.0320000
        k(   17) = (   0.0000000   0.2000000   0.6513279), wk =   0.0320000
        k(   18) = (   0.0000000   0.2000000   0.7598825), wk =   0.0320000
        k(   19) = (   0.0000000   0.2000000   0.8684372), wk =   0.0320000
        k(   20) = (   0.0000000   0.2000000   0.9769918), wk =   0.0320000
        k(   21) = (   0.0000000   0.4000000   0.0000000), wk =   0.0320000
        k(   22) = (   0.0000000   0.4000000   0.1085546), wk =   0.0320000
        k(   23) = (   0.0000000   0.4000000   0.2171093), wk =   0.0320000
        k(   24) = (   0.0000000   0.4000000   0.3256639), wk =   0.0320000
        k(   25) = (   0.0000000   0.4000000   0.4342186), wk =   0.0320000
        k(   26) = (   0.0000000   0.4000000   0.5427732), wk =   0.0320000
        k(   27) = (   0.0000000   0.4000000   0.6513279), wk =   0.0320000
        k(   28) = (   0.0000000   0.4000000   0.7598825), wk =   0.0320000
        k(   29) = (   0.0000000   0.4000000   0.8684372), wk =   0.0320000
        k(   30) = (   0.0000000   0.4000000   0.9769918), wk =   0.0320000
        k(   31) = (   0.2000000   0.2000000   0.0000000), wk =   0.0320000
        k(   32) = (   0.2000000   0.2000000   0.1085546), wk =   0.0320000
        k(   33) = (   0.2000000   0.2000000   0.2171093), wk =   0.0320000
        k(   34) = (   0.2000000   0.2000000   0.3256639), wk =   0.0320000
        k(   35) = (   0.2000000   0.2000000   0.4342186), wk =   0.0320000
        k(   36) = (   0.2000000   0.2000000   0.5427732), wk =   0.0320000
        k(   37) = (   0.2000000   0.2000000   0.6513279), wk =   0.0320000
        k(   38) = (   0.2000000   0.2000000   0.7598825), wk =   0.0320000
        k(   39) = (   0.2000000   0.2000000   0.8684372), wk =   0.0320000
        k(   40) = (   0.2000000   0.2000000   0.9769918), wk =   0.0320000
        k(   41) = (   0.2000000   0.4000000   0.0000000), wk =   0.0640000
        k(   42) = (   0.2000000   0.4000000   0.1085546), wk =   0.0640000
        k(   43) = (   0.2000000   0.4000000   0.2171093), wk =   0.0640000
        k(   44) = (   0.2000000   0.4000000   0.3256639), wk =   0.0640000
        k(   45) = (   0.2000000   0.4000000   0.4342186), wk =   0.0640000
        k(   46) = (   0.2000000   0.4000000   0.5427732), wk =   0.0640000
        k(   47) = (   0.2000000   0.4000000   0.6513279), wk =   0.0640000
        k(   48) = (   0.2000000   0.4000000   0.7598825), wk =   0.0640000
        k(   49) = (   0.2000000   0.4000000   0.8684372), wk =   0.0640000
        k(   50) = (   0.2000000   0.4000000   0.9769918), wk =   0.0640000
        k(   51) = (   0.4000000   0.4000000   0.0000000), wk =   0.0320000
        k(   52) = (   0.4000000   0.4000000   0.1085546), wk =   0.0320000
        k(   53) = (   0.4000000   0.4000000   0.2171093), wk =   0.0320000
        k(   54) = (   0.4000000   0.4000000   0.3256639), wk =   0.0320000
        k(   55) = (   0.4000000   0.4000000   0.4342186), wk =   0.0320000
        k(   56) = (   0.4000000   0.4000000   0.5427732), wk =   0.0320000
        k(   57) = (   0.4000000   0.4000000   0.6513279), wk =   0.0320000
        k(   58) = (   0.4000000   0.4000000   0.7598825), wk =   0.0320000
        k(   59) = (   0.4000000   0.4000000   0.8684372), wk =   0.0320000
        k(   60) = (   0.4000000   0.4000000   0.9769918), wk =   0.0320000

     Dense  grid:    26729 G-vectors     FFT dimensions: (  40,  40,  40)

     Smooth grid:     9467 G-vectors     FFT dimensions: (  27,  27,  27)

     Largest allocated arrays     est. size (Mb)     dimensions
        Kohn-Sham Wavefunctions         0.37 Mb     (   1209,   20)
        NL pseudopotentials             1.11 Mb     (   1209,   60)
        Each V/rho on FFT grid          0.98 Mb     (  64000)
        Each G-vector array             0.20 Mb     (  26729)
        G-vector shells                 0.01 Mb     (   1703)
     Largest temporary arrays     est. size (Mb)     dimensions
        Auxiliary wavefunctions         1.48 Mb     (   1209,   80)
        Each subspace H/S matrix        0.10 Mb     (  80,  80)
        Each <psi_i|beta_j> matrix      0.02 Mb     (     60,   20)

     Check: negative/imaginary core charge=   -0.000001    0.000000

     The potential is recalculated from file :
     tmp-sy/symm.save/charge-density.dat

     Starting wfc are   35 atomic wfcs

     total cpu time spent up to now is        3.0 secs

     per-process dynamical memory:    28.3 Mb

     Band Structure Calculation
     Davidson diagonalization with overlap

     ethr =  2.50E-11,  avg # of iterations = 15.3

     total cpu time spent up to now is       53.2 secs

     End of band structure calculation

          k = 0.0000 0.0000 0.0000     band energies (ev):

   -46.1235 -22.3407 -22.3407 -22.3299 -14.0646  -6.3996  -5.7744  -5.6610
     0.6847   0.7673   0.7673   8.1230   8.1594   8.1594   9.1454   9.2246
     9.2246  10.3041  10.3316  10.3316

          k = 0.0000 0.0000 0.1086     band energies (ev):

   -46.1234 -22.3407 -22.3407 -22.3352 -14.0510  -6.4214  -5.7723  -5.6417
     0.7445   0.7854   0.7854   7.9386   8.1225   8.1225   9.0679   9.1227
     9.1227   9.9841  10.2387  10.2387

          k = 0.0000 0.0000 0.2171     band energies (ev):

   -46.1231 -22.3489 -22.3397 -22.3397 -14.0162  -6.4974  -5.7669  -5.5659
     0.8323   0.8323   0.8944   7.4770   8.0067   8.0067   8.8861   8.9273
     8.9273   9.3554  10.0525  10.0525

          k = 0.0000 0.0000 0.3257     band energies (ev):

   -46.1227 -22.3628 -22.3387 -22.3387 -13.9758  -6.6062  -5.7608  -5.4468
     0.8871   0.8871   1.0630   6.9658   7.8386   7.8386   8.6980   8.7888
     8.7888   8.8130   9.8773   9.8773

          k = 0.0000 0.0000 0.4342     band energies (ev):

   -46.1226 -22.3728 -22.3385 -22.3385 -13.9491  -6.6840  -5.7567  -5.3563
     0.9238   0.9238   1.1722   6.6392   7.7157   7.7157   8.5141   8.5825
     8.7304   8.7304   9.7730   9.7730

          k = 0.0000 0.0000 0.5428     band energies (ev):

   -46.1226 -22.3728 -22.3385 -22.3385 -13.9491  -6.6840  -5.7567  -5.3563
     0.9238   0.9238   1.1722   6.6392   7.7157   7.7157   8.5141   8.5825
     8.7304   8.7304   9.7730   9.7730

          k = 0.0000 0.0000 0.6513     band energies (ev):

   -46.1227 -22.3628 -22.3387 -22.3387 -13.9758  -6.6062  -5.7608  -5.4468
     0.8871   0.8871   1.0630   6.9658   7.8386   7.8386   8.6980   8.7888
     8.7888   8.8130   9.8773   9.8773

          k = 0.0000 0.0000 0.7599     band energies (ev):

   -46.1231 -22.3489 -22.3397 -22.3397 -14.0162  -6.4974  -5.7669  -5.5659
     0.8323   0.8323   0.8944   7.4770   8.0067   8.0067   8.8861   8.9273
     8.9273   9.3554  10.0525  10.0525

          k = 0.0000 0.0000 0.8684     band energies (ev):

   -46.1234 -22.3407 -22.3407 -22.3352 -14.0510  -6.4214  -5.7723  -5.6417
     0.7445   0.7854   0.7854   7.9386   8.1225   8.1225   9.0679   9.1227
     9.1227   9.9841  10.2387  10.2387

          k = 0.0000 0.0000 0.9770     band energies (ev):

   -46.1235 -22.3407 -22.3407 -22.3299 -14.0646  -6.3996  -5.7744  -5.6610
     0.6847   0.7673   0.7673   8.1230   8.1594   8.1594   9.1454   9.2246
     9.2246  10.3041  10.3316  10.3316

          k = 0.0000 0.2000 0.0000     band energies (ev):

   -46.1230 -22.3608 -22.3395 -22.3289 -14.0176  -6.4185  -5.7180  -5.6681
     0.7494   0.8330   0.9123   7.5097   7.9986   8.0769   8.8067   8.8504
     8.9685   9.5255  10.0606  10.0720

          k = 0.0000 0.2000 0.1086     band energies (ev):

   -46.1229 -22.3601 -22.3392 -22.3342 -14.0058  -6.4112  -5.7191  -5.6616
     0.7341   0.8527   0.9553   7.4325   7.8802   8.0610   8.5288   8.7575
     9.1433   9.4188   9.9504   9.9744

          k = 0.0000 0.2000 0.2171     band energies (ev):

   -46.1226 -22.3597 -22.3474 -22.3386 -13.9756  -6.4164  -5.7265  -5.6130
     0.7374   0.9035   1.0183   7.1911   7.6337   7.9915   8.1289   8.5724
     9.0665   9.2863   9.7014   9.9492

          k = 0.0000 0.2000 0.3257     band energies (ev):

   -46.1223 -22.3617 -22.3589 -22.3377 -13.9407  -6.4592  -5.7229  -5.5245
     0.7821   0.9633   1.0424   6.8313   7.4472   7.7093   7.8513   8.4572
     8.9129   9.3251   9.4664   9.8792

          k = 0.0000 0.2000 0.4342     band energies (ev):

   -46.1221 -22.3717 -22.3585 -22.3376 -13.9175  -6.5029  -5.7156  -5.4513
     0.8384   1.0034   1.0273   6.5598   7.3658   7.4540   7.7315   8.4262
     8.8960   9.3256   9.3436   9.7782

          k = 0.0000 0.2000 0.5428     band energies (ev):

   -46.1221 -22.3717 -22.3585 -22.3376 -13.9175  -6.5029  -5.7156  -5.4513
     0.8384   1.0034   1.0273   6.5598   7.3658   7.4540   7.7315   8.4262
     8.8960   9.3256   9.3436   9.7782

          k = 0.0000 0.2000 0.6513     band energies (ev):

   -46.1223 -22.3617 -22.3589 -22.3377 -13.9407  -6.4592  -5.7229  -5.5245
     0.7821   0.9633   1.0424   6.8313   7.4472   7.7093   7.8513   8.4572
     8.9129   9.3251   9.4664   9.8792

          k = 0.0000 0.2000 0.7599     band energies (ev):

   -46.1226 -22.3597 -22.3474 -22.3386 -13.9756  -6.4164  -5.7265  -5.6130
     0.7374   0.9035   1.0183   7.1911   7.6337   7.9915   8.1289   8.5724
     9.0665   9.2863   9.7014   9.9492

          k = 0.0000 0.2000 0.8684     band energies (ev):

   -46.1229 -22.3601 -22.3392 -22.3342 -14.0058  -6.4112  -5.7191  -5.6616
     0.7341   0.8527   0.9553   7.4325   7.8802   8.0610   8.5288   8.7575
     9.1433   9.4188   9.9504   9.9744

          k = 0.0000 0.2000 0.9770     band energies (ev):

   -46.1230 -22.3608 -22.3395 -22.3289 -14.0176  -6.4185  -5.7180  -5.6681
     0.7494   0.8330   0.9123   7.5097   7.9986   8.0769   8.8067   8.8504
     8.9685   9.5255  10.0606  10.0720

          k = 0.0000 0.4000 0.0000     band energies (ev):

   -46.1224 -22.3940 -22.3383 -22.3274 -13.9393  -6.5777  -5.6736  -5.4729
     0.8595   0.9445   1.1404   6.4959   7.6836   7.8206   8.5117   8.5142
     8.6000   8.6937   9.7640   9.7874

          k = 0.0000 0.4000 0.1086     band energies (ev):

   -46.1223 -22.3936 -22.3380 -22.3327 -13.9305  -6.5308  -5.6631  -5.4992
     0.8353   0.9669   1.1033   6.4715   7.6271   7.8291   7.9407   8.4229
     8.7136   9.2107   9.6127   9.6229

          k = 0.0000 0.4000 0.2171     band energies (ev):

   -46.1220 -22.3927 -22.3455 -22.3375 -13.9081  -6.4101  -5.6416  -5.5599
     0.7841   1.0063   1.0252   6.4178   7.2718   7.4552   7.8528   8.2010
     8.9374   9.2941   9.3097   9.8383

          k = 0.0000 0.4000 0.3257     band energies (ev):

   -46.1217 -22.3920 -22.3599 -22.3367 -13.8824  -6.2716  -5.6482  -5.5945
     0.7442   0.8893   1.0939   6.3495   6.8529   6.9954   7.8642   7.9848
     8.9909   9.1581   9.4254  10.1401

          k = 0.0000 0.4000 0.4342     band energies (ev):

   -46.1215 -22.3916 -22.3702 -22.3364 -13.8653  -6.1845  -5.6655  -5.5980
     0.7398   0.7984   1.1402   6.2678   6.6117   6.7214   7.7698   7.9601
     8.8070   9.3754   9.4933  10.2719

          k = 0.0000 0.4000 0.5428     band energies (ev):

   -46.1215 -22.3916 -22.3702 -22.3364 -13.8653  -6.1845  -5.6655  -5.5980
     0.7398   0.7984   1.1402   6.2678   6.6117   6.7214   7.7698   7.9601
     8.8070   9.3754   9.4933  10.2719

          k = 0.0000 0.4000 0.6513     band energies (ev):

   -46.1217 -22.3920 -22.3599 -22.3367 -13.8824  -6.2716  -5.6482  -5.5945
     0.7442   0.8893   1.0939   6.3495   6.8529   6.9954   7.8642   7.9848
     8.9909   9.1581   9.4254  10.1401

          k = 0.0000 0.4000 0.7599     band energies (ev):

   -46.1220 -22.3927 -22.3455 -22.3375 -13.9081  -6.4101  -5.6416  -5.5599
     0.7841   1.0063   1.0252   6.4178   7.2718   7.4552   7.8528   8.2010
     8.9374   9.2941   9.3097   9.8383

          k = 0.0000 0.4000 0.8684     band energies (ev):

   -46.1223 -22.3936 -22.3380 -22.3327 -13.9305  -6.5308  -5.6631  -5.4992
     0.8353   0.9669   1.1033   6.4715   7.6271   7.8291   7.9407   8.4229
     8.7136   9.2107   9.6127   9.6229

          k = 0.0000 0.4000 0.9770     band energies (ev):

   -46.1224 -22.3940 -22.3383 -22.3274 -13.9393  -6.5777  -5.6736  -5.4729
     0.8595   0.9445   1.1404   6.4959   7.6836   7.8206   8.5117   8.5142
     8.6000   8.6937   9.7640   9.7874

          k = 0.2000 0.2000 0.0000     band energies (ev):

   -46.1226 -22.3603 -22.3597 -22.3279 -13.9763  -6.3497  -5.7346  -5.6426
     0.7256   0.8191   1.0516   7.2475   7.6379   7.9445   8.1426   8.4867
     9.1343   9.3501   9.7243   9.9897

          k = 0.2000 0.2000 0.1086     band energies (ev):

   -46.1225 -22.3600 -22.3594 -22.3332 -13.9658  -6.3284  -5.7269  -5.6437
     0.7068   0.7422   1.1354   7.1470   7.6227   7.8238   8.2162   8.3925
     8.8870   9.4537   9.7113   9.9294

          k = 0.2000 0.2000 0.2171     band energies (ev):

   -46.1223 -22.3596 -22.3591 -22.3462 -13.9390  -6.2954  -5.7070  -5.6229
     0.6585   0.6766   1.2100   6.9318   7.5821   7.6109   8.2155   8.2557
     8.3715   9.5882   9.7428   9.7868

          k = 0.2000 0.2000 0.3257     band energies (ev):

   -46.1220 -22.3610 -22.3586 -22.3583 -13.9081  -6.2963  -5.6840  -5.5551
     0.6027   0.7042   1.1777   6.7133   7.3144   7.5384   7.8042   8.1849
     8.4029   9.5503   9.7095   9.7342

          k = 0.2000 0.2000 0.4342     band energies (ev):

   -46.1217 -22.3705 -22.3581 -22.3577 -13.8877  -6.3158  -5.6688  -5.4884
     0.5657   0.7995   1.0715   6.5122   7.2261   7.4963   7.5145   8.1650
     8.5155   9.4496   9.6782   9.6953

          k = 0.2000 0.2000 0.5428     band energies (ev):

   -46.1217 -22.3705 -22.3581 -22.3577 -13.8877  -6.3158  -5.6688  -5.4884
     0.5657   0.7995   1.0715   6.5122   7.2261   7.4963   7.5145   8.1650
     8.5155   9.4496   9.6782   9.6953

          k = 0.2000 0.2000 0.6513     band energies (ev):

   -46.1220 -22.3610 -22.3586 -22.3583 -13.9081  -6.2963  -5.6840  -5.5551
     0.6027   0.7042   1.1777   6.7133   7.3144   7.5384   7.8042   8.1849
     8.4029   9.5503   9.7095   9.7342

          k = 0.2000 0.2000 0.7599     band energies (ev):

   -46.1223 -22.3596 -22.3591 -22.3462 -13.9390  -6.2954  -5.7070  -5.6229
     0.6585   0.6766   1.2100   6.9318   7.5821   7.6109   8.2155   8.2557
     8.3715   9.5882   9.7428   9.7868

          k = 0.2000 0.2000 0.8684     band energies (ev):

   -46.1225 -22.3600 -22.3594 -22.3332 -13.9658  -6.3284  -5.7269  -5.6437
     0.7068   0.7422   1.1354   7.1470   7.6227   7.8238   8.2162   8.3925
     8.8870   9.4537   9.7113   9.9294

          k = 0.2000 0.2000 0.9770     band energies (ev):

   -46.1226 -22.3603 -22.3597 -22.3279 -13.9763  -6.3497  -5.7346  -5.6426
     0.7256   0.8191   1.0516   7.2475   7.6379   7.9445   8.1426   8.4867
     9.1343   9.3501   9.7243   9.9897

          k = 0.2000 0.4000 0.0000     band energies (ev):

   -46.1219 -22.3924 -22.3581 -22.3265 -13.9077  -6.3912  -5.6481  -5.5383
     0.7910   0.9380   1.0213   6.4385   7.2899   7.5072   7.6961   8.2115
     8.9784   9.3504   9.3774   9.8129

          k = 0.2000 0.4000 0.1086     band energies (ev):

   -46.1218 -22.3923 -22.3581 -22.3315 -13.8995  -6.3428  -5.6340  -5.5499
     0.7047   0.8351   1.0898   6.4211   7.2207   7.5322   7.7173   8.1233
     8.8819   9.3370   9.4464   9.7774

          k = 0.2000 0.4000 0.2171     band energies (ev):

   -46.1215 -22.3914 -22.3575 -22.3444 -13.8785  -6.2182  -5.5994  -5.5782
     0.5636   0.6869   1.0755   6.3883   7.1064   7.5249   7.5997   8.0445
     8.4731   9.4594   9.6697   9.7939

          k = 0.2000 0.4000 0.3257     band energies (ev):

   -46.1213 -22.3908 -22.3594 -22.3572 -13.8543  -6.0750  -5.6041  -5.5642
     0.4936   0.5402   0.9521   6.3475   6.9482   7.1720   7.6584   7.9887
     8.2721   9.5279   9.7167  10.0914

          k = 0.2000 0.4000 0.4342     band energies (ev):

   -46.1211 -22.3902 -22.3690 -22.3568 -13.8384  -5.9847  -5.6085  -5.5480
     0.4398   0.5235   0.8049   6.2690   6.7214   7.1330   7.6521   7.9996
     8.1416   9.6417   9.7266  10.2540

          k = 0.2000 0.4000 0.5428     band energies (ev):

   -46.1211 -22.3902 -22.3690 -22.3568 -13.8384  -5.9847  -5.6085  -5.5480
     0.4398   0.5235   0.8049   6.2690   6.7214   7.1330   7.6521   7.9996
     8.1416   9.6417   9.7266  10.2540

          k = 0.2000 0.4000 0.6513     band energies (ev):

   -46.1213 -22.3908 -22.3594 -22.3572 -13.8543  -6.0750  -5.6041  -5.5642
     0.4936   0.5402   0.9521   6.3475   6.9482   7.1720   7.6584   7.9887
     8.2721   9.5279   9.7167  10.0914

          k = 0.2000 0.4000 0.7599     band energies (ev):

   -46.1215 -22.3914 -22.3575 -22.3444 -13.8785  -6.2182  -5.5994  -5.5782
     0.5636   0.6869   1.0755   6.3883   7.1064   7.5249   7.5997   8.0445
     8.4731   9.4594   9.6697   9.7939

          k = 0.2000 0.4000 0.8684     band energies (ev):

   -46.1218 -22.3923 -22.3581 -22.3315 -13.8995  -6.3428  -5.6340  -5.5499
     0.7047   0.8351   1.0898   6.4211   7.2207   7.5322   7.7173   8.1233
     8.8819   9.3370   9.4464   9.7774

          k = 0.2000 0.4000 0.9770     band energies (ev):

   -46.1219 -22.3924 -22.3581 -22.3265 -13.9077  -6.3912  -5.6481  -5.5383
     0.7910   0.9380   1.0213   6.4385   7.2899   7.5072   7.6961   8.2115
     8.9784   9.3504   9.3774   9.8129

          k = 0.4000 0.4000 0.0000     band energies (ev):

   -46.1212 -22.3909 -22.3907 -22.3253 -13.8556  -6.0711  -5.6650  -5.5887
     0.6529   0.7623   1.0729   6.2554   6.5495   6.6215   7.7072   7.7707
     8.8511   9.4471   9.6669  10.3065

          k = 0.4000 0.4000 0.1086     band energies (ev):

   -46.1211 -22.3907 -22.3904 -22.3303 -13.8483  -6.0188  -5.6480  -5.5761
     0.5770   0.6427   0.9989   6.2572   6.6209   6.6945   7.7626   7.8401
     8.5437   9.5135   9.7168  10.2937

          k = 0.4000 0.4000 0.2171     band energies (ev):

   -46.1208 -22.3899 -22.3894 -22.3430 -13.8296  -5.8841  -5.6039  -5.5428
     0.3905   0.4003   0.7792   6.2519   6.6214   7.0601   7.6184   7.9881
     8.1320   9.6988   9.8668  10.2656

          k = 0.4000 0.4000 0.3257     band energies (ev):

   -46.1205 -22.3890 -22.3887 -22.3577 -13.8082  -5.7293  -5.5520  -5.5003
     0.1869   0.2023   0.4931   6.2086   6.6236   7.0419   7.5247   8.0940
     8.1132   9.9667  10.0770  10.2430

          k = 0.4000 0.4000 0.4342     band energies (ev):

   -46.1203 -22.3882 -22.3879 -22.3672 -13.7940  -5.6323  -5.5168  -5.4644
     0.0579   0.1440   0.2557   6.1126   6.6257   6.7582   7.8495   8.0294
     8.1737  10.1642  10.1983  10.2714

          k = 0.4000 0.4000 0.5428     band energies (ev):

   -46.1203 -22.3882 -22.3879 -22.3672 -13.7940  -5.6323  -5.5168  -5.4644
     0.0579   0.1440   0.2557   6.1126   6.6257   6.7582   7.8495   8.0294
     8.1737  10.1642  10.1983  10.2714

          k = 0.4000 0.4000 0.6513     band energies (ev):

   -46.1205 -22.3890 -22.3887 -22.3577 -13.8082  -5.7293  -5.5520  -5.5003
     0.1869   0.2023   0.4931   6.2086   6.6236   7.0419   7.5247   8.0940
     8.1132   9.9667  10.0770  10.2430

          k = 0.4000 0.4000 0.7599     band energies (ev):

   -46.1208 -22.3899 -22.3894 -22.3430 -13.8296  -5.8841  -5.6039  -5.5428
     0.3905   0.4003   0.7792   6.2519   6.6214   7.0601   7.6184   7.9881
     8.1320   9.6988   9.8668  10.2656

          k = 0.4000 0.4000 0.8684     band energies (ev):

   -46.1211 -22.3907 -22.3904 -22.3303 -13.8483  -6.0188  -5.6480  -5.5761
     0.5770   0.6427   0.9989   6.2572   6.6209   6.6945   7.7626   7.8401
     8.5437   9.5135   9.7168  10.2937

          k = 0.4000 0.4000 0.9770     band energies (ev):

   -46.1212 -22.3909 -22.3907 -22.3253 -13.8556  -6.0711  -5.6650  -5.5887
     0.6529   0.7623   1.0729   6.2554   6.5495   6.6215   7.7072   7.7707
     8.8511   9.4471   9.6669  10.3065



               ==================================================
                            POLARIZATION CALCULATION
                         !!! NOT THOROUGHLY TESTED !!!
               --------------------------------------------------


                     K-POINTS STRINGS USED IN CALCULATIONS
                     ~~~~~~~~~~~~~~~~~~~~~~~~~~~~~~~~~~~~~

       G-vector along string (2 pi/a):  0.00000  0.00000  0.97699
       Modulus of the vector (1/bohr):  0.82171
       Number of k-points per string:  10
       Number of different strings  :   6


                               IONIC POLARIZATION
                               ~~~~~~~~~~~~~~~~~~

        Note: (mod 1) means that the phases (angles ranging from
        -pi to pi) have been mapped to the interval [-1/2,+1/2) by
        dividing by 2*pi; (mod 2) refers to the interval [-1,+1)

  ============================================================================
    Ion    Species    Charge              Position                Phase
  ----------------------------------------------------------------------------
     1        Ba      10.000       0.0000  0.0000  0.0000     0.00000 (mod 2)
     2        Ti      12.000       0.5000  0.5000  0.5118     0.00000 (mod 2)
     3        O        6.000       0.5000  0.5000  0.0000     0.00000 (mod 2)
     4        O        6.000       0.5000  0.0000  0.5118    -1.00000 (mod 2)
     5        O        6.000       0.0000  0.5000  0.5118    -1.00000 (mod 2)
  ----------------------------------------------------------------------------
                                               IONIC PHASE:   0.00000 (mod 2)
  ============================================================================


                            ELECTRONIC POLARIZATION
                            ~~~~~~~~~~~~~~~~~~~~~~~

        Note: (mod 1) means that the phases (angles ranging from
        -pi to pi) have been mapped to the interval [-1/2,+1/2) by
        dividing by 2*pi; (mod 2) refers to the interval [-1,+1)

  ============================================================================
   Spin    String     Weight      First k-point in string         Phase
  ----------------------------------------------------------------------------
    up        1      0.040000      0.0000  0.0000  0.0000     0.00000 (mod 1)
    up        2      0.160000      0.0000  0.2000  0.0000     0.00000 (mod 1)
    up        3      0.160000      0.0000  0.4000  0.0000     0.00000 (mod 1)
    up        4      0.160000      0.2000  0.2000  0.0000     0.00000 (mod 1)
    up        5      0.320000      0.2000  0.4000  0.0000     0.00000 (mod 1)
    up        6      0.160000      0.4000  0.4000  0.0000     0.00000 (mod 1)
  ----------------------------------------------------------------------------
   down       1      0.040000      0.0000  0.0000  0.0000     0.00000 (mod 1)
   down       2      0.160000      0.0000  0.2000  0.0000     0.00000 (mod 1)
   down       3      0.160000      0.0000  0.4000  0.0000     0.00000 (mod 1)
   down       4      0.160000      0.2000  0.2000  0.0000     0.00000 (mod 1)
   down       5      0.320000      0.2000  0.4000  0.0000     0.00000 (mod 1)
   down       6      0.160000      0.4000  0.4000  0.0000     0.00000 (mod 1)
  ----------------------------------------------------------------------------
                                        Average phase (up):   0.00000 (mod 1)
                                      Average phase (down):   0.00000 (mod 1)
                                          ELECTRONIC PHASE:   0.00000 (mod 2)
  ============================================================================


                               SUMMARY OF PHASES
                               ~~~~~~~~~~~~~~~~~

                          Ionic Phase:  0.00000 (mod 2)
                     Electronic Phase:  0.00000 (mod 2)
                          TOTAL PHASE:  0.00000 (mod 2)


                             VALUES OF POLARIZATION
                             ~~~~~~~~~~~~~~~~~~~~~~

        The calculation of phases done along the direction of vector 3
        of the reciprocal lattice gives the following contribution to
        the polarization vector (in different units, and being Omega
        the volume of the unit cell):

           P =   0.0000000  (mod  15.2930243)  (e/Omega).bohr

           P =   0.0000000  (mod   0.0358362)  e/bohr^2

           P =   0.0000000  (mod   2.0488144)  C/m^2

        The polarization direction is:  ( 0.00000 , 0.00000 , 1.00000 )


               ==================================================



     Writing output data file symm.save
 
     init_run     :      2.36s CPU      2.72s WALL (       1 calls)
     electrons    :     50.74s CPU     55.08s WALL (       1 calls)

     Called by init_run:
     wfcinit      :      0.00s CPU      0.00s WALL (       1 calls)
     potinit      :      0.10s CPU      0.14s WALL (       1 calls)

     Called by electrons:
     c_bands      :     46.15s CPU     50.22s WALL (       1 calls)
     v_of_rho     :      0.08s CPU      0.12s WALL (       1 calls)
     newd         :      0.44s CPU      0.50s WALL (       1 calls)

     Called by c_bands:
     init_us_2    :      0.29s CPU      0.31s WALL (     168 calls)
     cegterg      :     40.72s CPU     44.20s WALL (      60 calls)

     Called by *egterg:
     h_psi        :     32.25s CPU     35.08s WALL (    1040 calls)
     s_psi        :      1.86s CPU      2.11s WALL (    1040 calls)
     g_psi        :      0.45s CPU      0.53s WALL (     920 calls)
     cdiaghg      :      2.37s CPU      2.61s WALL (     980 calls)

     Called by h_psi:
     add_vuspsi   :      1.88s CPU      1.98s WALL (    1040 calls)

     General routines
     calbec       :      2.20s CPU      2.51s WALL (    1148 calls)
     fft          :      0.05s CPU      0.06s WALL (      13 calls)
     ffts         :      0.00s CPU      0.00s WALL (       1 calls)
     fftw         :     20.62s CPU     21.91s WALL (   32524 calls)
     interpolate  :      0.01s CPU      0.01s WALL (       1 calls)
     davcio       :      0.10s CPU      0.08s WALL (     168 calls)
 
 
     PWSCF        :    53.52s CPU        58.37s WALL

 
   This run was terminated on:  10:59:15  10Jul2014            

=------------------------------------------------------------------------------=
   JOB DONE.
=------------------------------------------------------------------------------=
