
     Program PWSCF v.4.3.2      starts on 10Jul2014 at 10:56:38 

     This program is part of the open-source Quantum ESPRESSO suite
     for quantum simulation of materials; please cite
         "P. Giannozzi et al., J. Phys.:Condens. Matter 21 395502 (2009);
          URL http://www.quantum-espresso.org", 
     in publications or presentations arising from this work. More details at
     http://www.quantum-espresso.org/wiki/index.php/Citing_Quantum-ESPRESSO

     Current dimensions of program PWSCF are:
     Max number of different atomic species (ntypx) = 10
     Max number of k-points (npk) =  40000
     Max angular momentum in pseudopotentials (lmaxx) =  3
     Waiting for input...
     Reading input from stdin
Warning: card   &IONS ignored
Warning: card   / ignored
Warning: card   &CELL ignored
Warning: card   / ignored
               file O.pbe-rrkjus.UPF: wavefunction(s)  2S renormalized
 
     G-vector sticks info
     --------------------
     sticks:   dense  smooth     PW     G-vecs:    dense   smooth      PW
     Sum        1069     529    161                26729     9467    1607
 


     bravais-lattice index     =            6
     lattice parameter (alat)  =       7.4706  a.u.
     unit-cell volume          =     426.7485 (a.u.)^3
     number of atoms/cell      =            5
     number of atomic types    =            3
     number of electrons       =        40.00
     number of Kohn-Sham states=           20
     kinetic-energy cutoff     =      30.0000  Ry
     charge density cutoff     =     240.0000  Ry
     convergence threshold     =      1.0E-08
     mixing beta               =       0.7000
     number of iterations used =            8  plain     mixing
     Exchange-correlation      =  SLA  PW   PBE  PBE ( 1 4 3 4 0)
     EXX-fraction              =        0.00

     celldm(1)=   7.470580  celldm(2)=   0.000000  celldm(3)=   1.023550
     celldm(4)=   0.000000  celldm(5)=   0.000000  celldm(6)=   0.000000

     crystal axes: (cart. coord. in units of alat)
               a(1) = (   1.000000   0.000000   0.000000 )  
               a(2) = (   0.000000   1.000000   0.000000 )  
               a(3) = (   0.000000   0.000000   1.023550 )  

     reciprocal axes: (cart. coord. in units 2 pi/alat)
               b(1) = (  1.000000  0.000000  0.000000 )  
               b(2) = (  0.000000  1.000000  0.000000 )  
               b(3) = (  0.000000  0.000000  0.976992 )  


     PseudoPot. # 1 for Ba read from file:
     ../../pseudo/Ba.pbe-nsp-van.UPF
     MD5 check sum: a011de417d3466d8e94df216395bc359
     Pseudo is Ultrasoft + core correction, Zval = 10.0
     Generated by new atomic code, or converted to UPF format
     Using radial grid of  907 points,  6 beta functions with: 
                l(1) =   0
                l(2) =   0
                l(3) =   1
                l(4) =   1
                l(5) =   2
                l(6) =   2
     Q(r) pseudized with  6 coefficients,  rinner =    1.200   1.200   1.200
                                                       1.200   1.200

     PseudoPot. # 2 for Ti read from file:
     ../../pseudo/Ti.pbe-sp-van_ak.UPF
     MD5 check sum: 8e4df49b7f0d34bbd5052bf3f5ea0213
     Pseudo is Ultrasoft, Zval = 12.0
     Generated by new atomic code, or converted to UPF format
     Using radial grid of  851 points,  6 beta functions with: 
                l(1) =   0
                l(2) =   0
                l(3) =   1
                l(4) =   1
                l(5) =   2
                l(6) =   2
     Q(r) pseudized with  8 coefficients,  rinner =    1.000   1.000   1.000
                                                       1.000   1.000

     PseudoPot. # 3 for O  read from file:
     ../../pseudo/O.pbe-rrkjus.UPF
     MD5 check sum: 390ba29e75625707450f3bd3f0eb6be9
     Pseudo is Ultrasoft, Zval =  6.0
     Generated by new atomic code, or converted to UPF format
     Using radial grid of 1269 points,  4 beta functions with: 
                l(1) =   0
                l(2) =   0
                l(3) =   1
                l(4) =   1
     Q(r) pseudized with 0 coefficients 


     atomic species   valence    mass     pseudopotential
        Ba            10.00   137.34000     Ba( 1.00)
        Ti            12.00    47.90000     Ti( 1.00)
        O              6.00    16.00000     O ( 1.00)

     16 Sym.Ops. (with inversion)


   Cartesian axes

     site n.     atom                  positions (alat units)
         1           Ba  tau(   1) = (   0.0000000   0.0000000   0.0000000  )
         2           Ti  tau(   2) = (   0.5000000   0.5000000   0.5117750  )
         3           O   tau(   3) = (   0.5000000   0.5000000   0.0000000  )
         4           O   tau(   4) = (   0.5000000   0.0000000   0.5117750  )
         5           O   tau(   5) = (   0.0000000   0.5000000   0.5117750  )

     number of k points=    18
                       cart. coord. in units 2pi/alat
        k(    1) = (   0.0000000   0.0000000   0.0000000), wk =   0.0160000
        k(    2) = (   0.0000000   0.0000000   0.1953984), wk =   0.0320000
        k(    3) = (   0.0000000   0.0000000   0.3907967), wk =   0.0320000
        k(    4) = (   0.0000000   0.2000000   0.0000000), wk =   0.0640000
        k(    5) = (   0.0000000   0.2000000   0.1953984), wk =   0.1280000
        k(    6) = (   0.0000000   0.2000000   0.3907967), wk =   0.1280000
        k(    7) = (   0.0000000   0.4000000   0.0000000), wk =   0.0640000
        k(    8) = (   0.0000000   0.4000000   0.1953984), wk =   0.1280000
        k(    9) = (   0.0000000   0.4000000   0.3907967), wk =   0.1280000
        k(   10) = (   0.2000000   0.2000000   0.0000000), wk =   0.0640000
        k(   11) = (   0.2000000   0.2000000   0.1953984), wk =   0.1280000
        k(   12) = (   0.2000000   0.2000000   0.3907967), wk =   0.1280000
        k(   13) = (   0.2000000   0.4000000   0.0000000), wk =   0.1280000
        k(   14) = (   0.2000000   0.4000000   0.1953984), wk =   0.2560000
        k(   15) = (   0.2000000   0.4000000   0.3907967), wk =   0.2560000
        k(   16) = (   0.4000000   0.4000000   0.0000000), wk =   0.0640000
        k(   17) = (   0.4000000   0.4000000   0.1953984), wk =   0.1280000
        k(   18) = (   0.4000000   0.4000000   0.3907967), wk =   0.1280000

     Dense  grid:    26729 G-vectors     FFT dimensions: (  40,  40,  40)

     Smooth grid:     9467 G-vectors     FFT dimensions: (  27,  27,  27)

     Largest allocated arrays     est. size (Mb)     dimensions
        Kohn-Sham Wavefunctions         0.37 Mb     (   1209,   20)
        NL pseudopotentials             1.11 Mb     (   1209,   60)
        Each V/rho on FFT grid          0.98 Mb     (  64000)
        Each G-vector array             0.20 Mb     (  26729)
        G-vector shells                 0.01 Mb     (   1703)
     Largest temporary arrays     est. size (Mb)     dimensions
        Auxiliary wavefunctions         1.48 Mb     (   1209,   80)
        Each subspace H/S matrix        0.10 Mb     (  80,  80)
        Each <psi_i|beta_j> matrix      0.02 Mb     (     60,   20)
        Arrays for rho mixing           7.81 Mb     (  64000,   8)

     Check: negative/imaginary core charge=   -0.000001    0.000000

     Initial potential from superposition of free atoms

     starting charge   38.98495, renormalised to   40.00000
     Starting wfc are   35 atomic wfcs

     total cpu time spent up to now is        4.2 secs

     per-process dynamical memory:    29.8 Mb

     Self-consistent Calculation

     iteration #  1     ecut=    30.00 Ry     beta=0.70
     Davidson diagonalization with overlap
     ethr =  1.00E-02,  avg # of iterations =  1.7

     total cpu time spent up to now is        7.7 secs

     total energy              =    -302.77513974 Ry
     Harris-Foulkes estimate   =    -303.45734057 Ry
     estimated scf accuracy    <       0.87484299 Ry

     iteration #  2     ecut=    30.00 Ry     beta=0.70
     Davidson diagonalization with overlap
     ethr =  2.19E-03,  avg # of iterations =  5.6

     total cpu time spent up to now is       13.4 secs

     total energy              =    -301.19977466 Ry
     Harris-Foulkes estimate   =    -304.49034863 Ry
     estimated scf accuracy    <      15.01795197 Ry

     iteration #  3     ecut=    30.00 Ry     beta=0.70
     Davidson diagonalization with overlap
     ethr =  2.19E-03,  avg # of iterations =  4.9

     total cpu time spent up to now is       18.9 secs

     total energy              =    -303.18802618 Ry
     Harris-Foulkes estimate   =    -303.25458420 Ry
     estimated scf accuracy    <       0.16258197 Ry

     iteration #  4     ecut=    30.00 Ry     beta=0.70
     Davidson diagonalization with overlap
     ethr =  4.06E-04,  avg # of iterations =  2.9

     total cpu time spent up to now is       23.9 secs

     total energy              =    -303.23388978 Ry
     Harris-Foulkes estimate   =    -303.25319789 Ry
     estimated scf accuracy    <       0.07624946 Ry

     iteration #  5     ecut=    30.00 Ry     beta=0.70
     Davidson diagonalization with overlap
     ethr =  1.91E-04,  avg # of iterations =  3.0

     total cpu time spent up to now is       27.5 secs

     total energy              =    -303.27853371 Ry
     Harris-Foulkes estimate   =    -303.28294485 Ry
     estimated scf accuracy    <       0.03701113 Ry

     iteration #  6     ecut=    30.00 Ry     beta=0.70
     Davidson diagonalization with overlap
     ethr =  9.25E-05,  avg # of iterations =  2.7

     total cpu time spent up to now is       31.0 secs

     total energy              =    -303.27859552 Ry
     Harris-Foulkes estimate   =    -303.28166773 Ry
     estimated scf accuracy    <       0.01301340 Ry

     iteration #  7     ecut=    30.00 Ry     beta=0.70
     Davidson diagonalization with overlap
     ethr =  3.25E-05,  avg # of iterations =  2.9

     total cpu time spent up to now is       34.9 secs

     total energy              =    -303.29740366 Ry
     Harris-Foulkes estimate   =    -303.29817675 Ry
     estimated scf accuracy    <       0.00749454 Ry

     iteration #  8     ecut=    30.00 Ry     beta=0.70
     Davidson diagonalization with overlap
     ethr =  1.87E-05,  avg # of iterations =  2.5

     total cpu time spent up to now is       39.1 secs

     total energy              =    -303.29664411 Ry
     Harris-Foulkes estimate   =    -303.29773246 Ry
     estimated scf accuracy    <       0.00369725 Ry

     iteration #  9     ecut=    30.00 Ry     beta=0.70
     Davidson diagonalization with overlap
     ethr =  9.24E-06,  avg # of iterations =  3.2

     total cpu time spent up to now is       43.7 secs

     total energy              =    -303.29720098 Ry
     Harris-Foulkes estimate   =    -303.29725899 Ry
     estimated scf accuracy    <       0.00032749 Ry

     iteration # 10     ecut=    30.00 Ry     beta=0.70
     Davidson diagonalization with overlap
     ethr =  8.19E-07,  avg # of iterations =  2.7

     total cpu time spent up to now is       48.4 secs

     total energy              =    -303.29720135 Ry
     Harris-Foulkes estimate   =    -303.29723130 Ry
     estimated scf accuracy    <       0.00009955 Ry

     iteration # 11     ecut=    30.00 Ry     beta=0.70
     Davidson diagonalization with overlap
     ethr =  2.49E-07,  avg # of iterations =  3.2

     total cpu time spent up to now is       53.2 secs

     total energy              =    -303.29721600 Ry
     Harris-Foulkes estimate   =    -303.29721694 Ry
     estimated scf accuracy    <       0.00000312 Ry

     iteration # 12     ecut=    30.00 Ry     beta=0.70
     Davidson diagonalization with overlap
     ethr =  7.81E-09,  avg # of iterations =  3.9

     total cpu time spent up to now is       58.3 secs

     total energy              =    -303.29721683 Ry
     Harris-Foulkes estimate   =    -303.29721723 Ry
     estimated scf accuracy    <       0.00000127 Ry

     iteration # 13     ecut=    30.00 Ry     beta=0.70
     Davidson diagonalization with overlap
     ethr =  3.18E-09,  avg # of iterations =  2.7

     total cpu time spent up to now is       62.8 secs

     total energy              =    -303.29721692 Ry
     Harris-Foulkes estimate   =    -303.29721697 Ry
     estimated scf accuracy    <       0.00000013 Ry

     iteration # 14     ecut=    30.00 Ry     beta=0.70
     Davidson diagonalization with overlap
     ethr =  3.30E-10,  avg # of iterations =  3.9

     total cpu time spent up to now is       68.1 secs

     total energy              =    -303.29721697 Ry
     Harris-Foulkes estimate   =    -303.29721700 Ry
     estimated scf accuracy    <       0.00000011 Ry

     iteration # 15     ecut=    30.00 Ry     beta=0.70
     Davidson diagonalization with overlap
     ethr =  2.81E-10,  avg # of iterations =  1.3

     total cpu time spent up to now is       72.0 secs

     total energy              =    -303.29721695 Ry
     Harris-Foulkes estimate   =    -303.29721697 Ry
     estimated scf accuracy    <       0.00000005 Ry

     iteration # 16     ecut=    30.00 Ry     beta=0.70
     Davidson diagonalization with overlap
     ethr =  1.22E-10,  avg # of iterations =  3.1

     total cpu time spent up to now is       77.0 secs

     End of self-consistent calculation

          k = 0.0000 0.0000 0.0000 (  1205 PWs)   bands (ev):

   -46.1226 -22.3398 -22.3398 -22.3291 -14.0647  -6.4000  -5.7751  -5.6607
     0.6846   0.7673   0.7673   8.1231   8.1590   8.1590   9.1448   9.2245
     9.2245  10.3039  10.3313  10.3313

          k = 0.0000 0.0000 0.1954 (  1209 PWs)   bands (ev):

   -46.1223 -22.3450 -22.3393 -22.3393 -14.0243  -6.4784  -5.7688  -5.5857
     0.8214   0.8214   0.8602   7.5818   8.0353   8.0353   8.9257   8.9649
     8.9649   9.4823  10.0908  10.0908

          k = 0.0000 0.0000 0.3908 (  1170 PWs)   bands (ev):

   -46.1216 -22.3684 -22.3373 -22.3373 -13.9571  -6.6611  -5.7586  -5.3835
     0.9128   0.9128   1.1397   6.7364   7.7525   7.7525   8.5994   8.6160
     8.7464   8.7464   9.8033   9.8033

          k = 0.0000 0.2000 0.0000 (  1191 PWs)   bands (ev):

   -46.1221 -22.3600 -22.3386 -22.3280 -14.0177  -6.4187  -5.7186  -5.6679
     0.7493   0.8329   0.9122   7.5094   7.9986   8.0767   8.8062   8.8502
     8.9684   9.5254  10.0605  10.0719

          k = 0.0000 0.2000 0.1954 (  1185 PWs)   bands (ev):

   -46.1218 -22.3590 -22.3433 -22.3379 -13.9826  -6.4127  -5.7261  -5.6265
     0.7332   0.8917   1.0077   7.2525   7.6831   8.0113   8.2142   8.6079
     9.1242   9.2719   9.7532   9.9539

          k = 0.0000 0.2000 0.3908 (  1182 PWs)   bands (ev):

   -46.1213 -22.3680 -22.3578 -22.3368 -13.9245  -6.4895  -5.7187  -5.4738
     0.8182   0.9914   1.0353   6.6430   7.3875   7.5270   7.7681   8.4329
     8.8961   9.3354   9.3666   9.8141

          k = 0.0000 0.4000 0.0000 (  1191 PWs)   bands (ev):

   -46.1215 -22.3931 -22.3374 -22.3265 -13.9394  -6.5779  -5.6736  -5.4736
     0.8594   0.9444   1.1403   6.4956   7.6836   7.8206   8.5114   8.5138
     8.5995   8.6939   9.7639   9.7874

          k = 0.0000 0.4000 0.1954 (  1184 PWs)   bands (ev):

   -46.1211 -22.3921 -22.3415 -22.3367 -13.9133  -6.4382  -5.6454  -5.5478
     0.7944   1.0116   1.0288   6.4294   7.3675   7.5417   7.8473   8.2501
     8.8927   9.3089   9.3610   9.7614

          k = 0.0000 0.4000 0.3908 (  1182 PWs)   bands (ev):

   -46.1206 -22.3907 -22.3660 -22.3355 -13.8705  -6.2102  -5.6623  -5.5961
     0.7367   0.8290   1.1263   6.2984   6.6851   6.7930   7.8076   7.9561
     8.8611   9.2955   9.4844  10.2373

          k = 0.2000 0.2000 0.0000 (  1189 PWs)   bands (ev):

   -46.1216 -22.3594 -22.3589 -22.3271 -13.9764  -6.3498  -5.7353  -5.6425
     0.7256   0.8190   1.0516   7.2473   7.6376   7.9445   8.1422   8.4862
     9.1345   9.3500   9.7243   9.9895

          k = 0.2000 0.2000 0.1954 (  1197 PWs)   bands (ev):

   -46.1214 -22.3589 -22.3585 -22.3425 -13.9453  -6.3005  -5.7122  -5.6306
     0.6695   0.6827   1.2027   6.9760   7.5911   7.6647   8.2372   8.2782
     8.4545   9.5696   9.7363   9.8164

          k = 0.2000 0.2000 0.3908 (  1184 PWs)   bands (ev):

   -46.1209 -22.3669 -22.3574 -22.3570 -13.8939  -6.3094  -5.6740  -5.5093
     0.5767   0.7590   1.1158   6.5806   7.2294   7.5208   7.5985   8.1694
     8.4769   9.4809   9.6993   9.7005

          k = 0.2000 0.4000 0.0000 (  1178 PWs)   bands (ev):

   -46.1209 -22.3916 -22.3572 -22.3256 -13.9078  -6.3913  -5.6482  -5.5389
     0.7909   0.9379   1.0213   6.4383   7.2895   7.5069   7.6960   8.2111
     8.9787   9.3506   9.3775   9.8124

          k = 0.2000 0.4000 0.1954 (  1180 PWs)   bands (ev):

   -46.1207 -22.3908 -22.3569 -22.3406 -13.8834  -6.2471  -5.6071  -5.5726
     0.5881   0.7183   1.0884   6.3946   7.1280   7.5739   7.6050   8.0556
     8.5403   9.4514   9.6303   9.7590

          k = 0.2000 0.4000 0.3908 (  1183 PWs)   bands (ev):

   -46.1202 -22.3894 -22.3651 -22.3560 -13.8432  -6.0114  -5.6098  -5.5514
     0.4647   0.5098   0.8578   6.3024   6.7868   7.1320   7.6628   7.9798
     8.1923   9.5938   9.7320  10.2092

          k = 0.4000 0.4000 0.0000 (  1182 PWs)   bands (ev):

   -46.1203 -22.3901 -22.3898 -22.3244 -13.8557  -6.0709  -5.6657  -5.5891
     0.6528   0.7623   1.0728   6.2551   6.5491   6.6212   7.7069   7.7704
     8.8515   9.4475   9.6673  10.3059

          k = 0.4000 0.4000 0.1954 (  1176 PWs)   bands (ev):

   -46.1200 -22.3892 -22.3887 -22.3392 -13.8339  -5.9150  -5.6148  -5.5509
     0.4324   0.4496   0.8321   6.2542   6.6210   6.9775   7.7010   7.9573
     8.1704   9.6523   9.8298  10.2708

          k = 0.4000 0.4000 0.3908 (  1174 PWs)   bands (ev):

   -46.1195 -22.3877 -22.3874 -22.3639 -13.7983  -5.6607  -5.5281  -5.4760
     0.0959   0.1476   0.3382   6.1506   6.6247   6.8324   7.7366   8.0642
     8.1571  10.1041  10.1743  10.2479

!    total energy              =    -303.29721696 Ry
     Harris-Foulkes estimate   =    -303.29721697 Ry
     estimated scf accuracy    <          8.2E-09 Ry

     The total energy is the sum of the following terms:

     one-electron contribution =     -70.08049500 Ry
     hartree contribution      =      59.21354088 Ry
     xc contribution           =     -84.16516867 Ry
     ewald contribution        =    -208.26509417 Ry

     convergence has been achieved in  16 iterations

     Forces acting on atoms (Ry/au):

     atom    1 type  1   force =     0.00000000    0.00000000    0.00000000
     atom    2 type  2   force =     0.00000000    0.00000000    0.00000000
     atom    3 type  3   force =     0.00000000    0.00000000    0.00000000
     atom    4 type  3   force =     0.00000000    0.00000000    0.00000000
     atom    5 type  3   force =     0.00000000    0.00000000    0.00000000

     Total force =     0.000000     Total SCF correction =     0.000000


     entering subroutine stress ...

          total   stress  (Ry/bohr**3)                   (kbar)     P=  -21.39
  -0.00004802   0.00000000   0.00000000         -7.06      0.00      0.00
   0.00000000  -0.00004802   0.00000000          0.00     -7.06      0.00
   0.00000000   0.00000000  -0.00034025          0.00      0.00    -50.05


     Writing output data file symm.save
 
     init_run     :      4.03s CPU      4.11s WALL (       1 calls)
     electrons    :     67.28s CPU     72.73s WALL (       1 calls)
     forces       :      1.44s CPU      1.55s WALL (       1 calls)
     stress       :      6.18s CPU      6.97s WALL (       1 calls)

     Called by init_run:
     wfcinit      :      1.57s CPU      1.60s WALL (       1 calls)
     potinit      :      0.22s CPU      0.23s WALL (       1 calls)

     Called by electrons:
     c_bands      :     43.40s CPU     46.74s WALL (      16 calls)
     sum_band     :     14.06s CPU     15.25s WALL (      16 calls)
     v_of_rho     :      1.44s CPU      1.58s WALL (      17 calls)
     newd         :      8.38s CPU      9.13s WALL (      17 calls)
     mix_rho      :      0.24s CPU      0.26s WALL (      16 calls)

     Called by c_bands:
     init_us_2    :      1.05s CPU      1.21s WALL (     630 calls)
     cegterg      :     40.88s CPU     43.72s WALL (     288 calls)

     Called by *egterg:
     h_psi        :     32.11s CPU     34.31s WALL (    1211 calls)
     s_psi        :      1.97s CPU      2.00s WALL (    1211 calls)
     g_psi        :      0.29s CPU      0.35s WALL (     905 calls)
     cdiaghg      :      2.02s CPU      2.04s WALL (    1193 calls)

     Called by h_psi:
     add_vuspsi   :      1.80s CPU      1.98s WALL (    1211 calls)

     General routines
     calbec       :      2.92s CPU      3.01s WALL (    1535 calls)
     fft          :      1.12s CPU      1.17s WALL (     293 calls)
     ffts         :      0.04s CPU      0.03s WALL (      33 calls)
     fftw         :     23.59s CPU     25.38s WALL (   36936 calls)
     interpolate  :      0.20s CPU      0.20s WALL (      33 calls)
     davcio       :      0.33s CPU      0.42s WALL (     918 calls)
 
 
     PWSCF        :  1m19.13s CPU     1m25.72s WALL

 
   This run was terminated on:  10:58: 4  10Jul2014            

=------------------------------------------------------------------------------=
   JOB DONE.
=------------------------------------------------------------------------------=
