<PP_INFO>
Generated using Vanderbilt code, version   7  3  6                              
Author: unknown    Generation date:   13   11    8                              
Automatically converted from original format                                    
    1        The Pseudo was generated with a Scalar-Relativistic Calculation
  1.90000000000E+00    Local Potential cutoff radius
nl pn  l   occ               Rcut            Rcut US             E pseu
3D  3  2  7.00      1.50000000000      2.20000000000     -0.28037614430
4S  4  0  1.00      1.50000000000      2.20000000000     -0.31276478702
4P  4  1  0.00      1.50000000000      2.20000000000     -0.06376537405
</PP_INFO>


<PP_HEADER>
   0                   Version Number
  Fe                   Element
   US                  Ultrasoft pseudopotential
    T                  Nonlinear Core Correction
SLA  PW   PBE  PBE     PBE  Exchange-Correlation functional
    8.00000000000      Z valence
  -62.33026970300      Total energy
  0.0000000  0.0000000 Suggested cutoff for wfc and rho
    2                  Max angular momentum component
  935                  Number of points in mesh
    3    6             Number of Wavefunctions, Number of Projectors
 Wavefunctions         nl  l   occ
                       3D  2  7.00
                       4S  0  1.00
                       4P  1  0.00
</PP_HEADER>


<PP_MESH>
  <PP_R>
  0.00000000000E+00  5.89438061015E-07  1.18878241283E-06  1.79819954383E-06
  2.41785874048E-06  3.04793213431E-06  3.68859474977E-06  4.34002455281E-06
  5.00240250034E-06  5.67591259050E-06  6.36074191376E-06  7.05708070488E-06
  7.76512239578E-06  8.48506366927E-06  9.21710451366E-06  9.96144827833E-06
  1.07183017302E-05  1.14878751113E-05  1.22703821969E-05  1.30660403551E-05
  1.38750706071E-05  1.46976976889E-05  1.55341501132E-05  1.63846602333E-05
  1.72494643074E-05  1.81288025646E-05  1.90229192710E-05  1.99320627982E-05
  2.08564856919E-05  2.17964447421E-05  2.27522010547E-05  2.37240201237E-05
  2.47121719050E-05  2.57169308916E-05  2.67385761897E-05  2.77773915962E-05
  2.88336656777E-05  2.99076918503E-05  3.09997684617E-05  3.21101988733E-05
  3.32392915454E-05  3.43873601219E-05  3.55547235182E-05  3.67417060095E-05
  3.79486373207E-05  3.91758527182E-05  4.04236931032E-05  4.16925051059E-05
  4.29826411824E-05  4.42944597120E-05  4.56283250972E-05  4.69846078647E-05
  4.83636847686E-05  4.97659388945E-05  5.11917597666E-05  5.26415434553E-05
  5.41156926877E-05  5.56146169591E-05  5.71387326470E-05  5.86884631267E-05
  6.02642388889E-05  6.18664976592E-05  6.34956845197E-05  6.51522520328E-05
  6.68366603669E-05  6.85493774240E-05  7.02908789698E-05  7.20616487659E-05
  7.38621787042E-05  7.56929689436E-05  7.75545280486E-05  7.94473731310E-05
  8.13720299931E-05  8.33290332744E-05  8.53189265994E-05  8.73422627290E-05
  8.93996037142E-05  9.14915210516E-05  9.36185958430E-05  9.57814189560E-05
  9.79805911889E-05  1.00216723437E-04  1.02490436862E-04  1.04802363067E-04
  1.07153144266E-04  1.09543433472E-04  1.11973894668E-04  1.14445202997E-04
  1.16958044951E-04  1.19513118556E-04  1.22111133573E-04  1.24752811689E-04
  1.27438886720E-04  1.30170104815E-04  1.32947224664E-04  1.35771017707E-04
  1.38642268348E-04  1.41561774177E-04  1.44530346185E-04  1.47548808994E-04
  1.50618001088E-04  1.53738775037E-04  1.56911997744E-04  1.60138550681E-04
  1.63419330132E-04  1.66755247447E-04  1.70147229290E-04  1.73596217901E-04
  1.77103171354E-04  1.80669063825E-04  1.84294885864E-04  1.87981644665E-04
  1.91730364353E-04  1.95542086262E-04  1.99417869229E-04  2.03358789885E-04
  2.07365942956E-04  2.11440441565E-04  2.15583417544E-04  2.19796021747E-04
  2.24079424367E-04  2.28434815266E-04  2.32863404304E-04  2.37366421673E-04
  2.41945118239E-04  2.46600765893E-04  2.51334657899E-04  2.56148109258E-04
  2.61042457071E-04  2.66019060910E-04  2.71079303198E-04  2.76224589590E-04
  2.81456349364E-04  2.86776035822E-04  2.92185126688E-04  2.97685124522E-04
  3.03277557137E-04  3.08963978022E-04  3.14745966775E-04  3.20625129541E-04
  3.26603099459E-04  3.32681537115E-04  3.38862131002E-04  3.45146597992E-04
  3.51536683811E-04  3.58034163523E-04  3.64640842026E-04  3.71358554550E-04
  3.78189167170E-04  3.85134577323E-04  3.92196714334E-04  3.99377539953E-04
  4.06679048899E-04  4.14103269417E-04  4.21652263838E-04  4.29328129153E-04
  4.37132997597E-04  4.45069037238E-04  4.53138452584E-04  4.61343485189E-04
  4.69686414284E-04  4.78169557402E-04  4.86795271025E-04  4.95565951241E-04
  5.04484034407E-04  5.13551997825E-04  5.22772360432E-04  5.32147683499E-04
  5.41680571343E-04  5.51373672050E-04  5.61229678210E-04  5.71251327665E-04
  5.81441404273E-04  5.91802738674E-04  6.02338209085E-04  6.13050742092E-04
  6.23943313468E-04  6.35018948998E-04  6.46280725317E-04  6.57731770770E-04
  6.69375266276E-04  6.81214446215E-04  6.93252599323E-04  7.05493069609E-04
  7.17939257283E-04  7.30594619699E-04  7.43462672317E-04  7.56546989679E-04
  7.69851206401E-04  7.83379018185E-04  7.97134182844E-04  8.11120521344E-04
  8.25341918870E-04  8.39802325901E-04  8.54505759310E-04  8.69456303479E-04
  8.84658111433E-04  9.00115405993E-04  9.15832480953E-04  9.31813702268E-04
  9.48063509267E-04  9.64586415892E-04  9.81387011945E-04  9.98469964365E-04
  1.01584001853E-03  1.03350199956E-03  1.05146081368E-03  1.06972144956E-03
  1.08828897973E-03  1.10716856194E-03  1.12636544064E-03  1.14588494844E-03
  1.16573250753E-03  1.18591363125E-03  1.20643392561E-03  1.22729909081E-03
  1.24851492288E-03  1.27008731522E-03  1.29202226032E-03  1.31432585136E-03
  1.33700428391E-03  1.36006385770E-03  1.38351097830E-03  1.40735215895E-03
  1.43159402237E-03  1.45624330254E-03  1.48130684667E-03  1.50679161700E-03
  1.53270469280E-03  1.55905327231E-03  1.58584467476E-03  1.61308634236E-03
  1.64078584244E-03  1.66895086946E-03  1.69758924723E-03  1.72670893104E-03
  1.75631800988E-03  1.78642470868E-03  1.81703739060E-03  1.84816455937E-03
  1.87981486163E-03  1.91199708932E-03  1.94472018216E-03  1.97799323011E-03
  2.01182547590E-03  2.04622631759E-03  2.08120531119E-03  2.11677217331E-03
  2.15293678387E-03  2.18970918882E-03  2.22709960296E-03  2.26511841275E-03
  2.30377617922E-03  2.34308364088E-03  2.38305171674E-03  2.42369150928E-03
  2.46501430760E-03  2.50703159052E-03  2.54975502978E-03  2.59319649327E-03
  2.63736804836E-03  2.68228196519E-03  2.72795072014E-03  2.77438699929E-03
  2.82160370188E-03  2.86961394397E-03  2.91843106205E-03  2.96806861675E-03
  3.01854039660E-03  3.06986042185E-03  3.12204294840E-03  3.17510247173E-03
  3.22905373094E-03  3.28391171284E-03  3.33969165611E-03  3.39640905553E-03
  3.45407966630E-03  3.51271950842E-03  3.57234487109E-03  3.63297231731E-03
  3.69461868842E-03  3.75730110881E-03  3.82103699066E-03  3.88584403881E-03
  3.95174025561E-03  4.01874394601E-03  4.08687372257E-03  4.15614851066E-03
  4.22658755372E-03  4.29821041862E-03  4.37103700104E-03  4.44508753107E-03
  4.52038257878E-03  4.59694305993E-03  4.67479024182E-03  4.75394574918E-03
  4.83443157014E-03  4.91627006239E-03  4.99948395939E-03  5.08409637664E-03
  5.17013081812E-03  5.25761118285E-03  5.34656177149E-03  5.43700729311E-03
  5.52897287206E-03  5.62248405490E-03  5.71756681758E-03  5.81424757258E-03
  5.91255317630E-03  6.01251093646E-03  6.11414861977E-03  6.21749445957E-03
  6.32257716369E-03  6.42942592246E-03  6.53807041677E-03  6.64854082634E-03
  6.76086783812E-03  6.87508265476E-03  6.99121700335E-03  7.10930314417E-03
  7.22937387969E-03  7.35146256366E-03  7.47560311039E-03  7.60183000416E-03
  7.73017830881E-03  7.86068367748E-03  7.99338236248E-03  8.12831122543E-03
  8.26550774743E-03  8.40501003950E-03  8.54685685319E-03  8.69108759129E-03
  8.83774231882E-03  8.98686177416E-03  9.13848738034E-03  9.29266125654E-03
  9.44942622985E-03  9.60882584709E-03  9.77090438696E-03  9.93570687232E-03
  1.01032790827E-02  1.02736675670E-02  1.04469196565E-02  1.06230834778E-02
  1.08022079665E-02  1.09843428806E-02  1.11695388142E-02  1.13578472118E-02
  1.15493203826E-02  1.17440115147E-02  1.19419746903E-02  1.21432649005E-02
  1.23479380605E-02  1.25560510252E-02  1.27676616051E-02  1.29828285824E-02
  1.32016117269E-02  1.34240718133E-02  1.36502706374E-02  1.38802710336E-02
  1.41141368925E-02  1.43519331783E-02  1.45937259471E-02  1.48395823650E-02
  1.50895707270E-02  1.53437604761E-02  1.56022222221E-02  1.58650277616E-02
  1.61322500978E-02  1.64039634609E-02  1.66802433285E-02  1.69611664469E-02
  1.72468108520E-02  1.75372558913E-02  1.78325822460E-02  1.81328719529E-02
  1.84382084279E-02  1.87486764885E-02  1.90643623779E-02  1.93853537887E-02
  1.97117398872E-02  2.00436113383E-02  2.03810603306E-02  2.07241806022E-02
  2.10730674665E-02  2.14278178386E-02  2.17885302627E-02  2.21553049390E-02
  2.25282437517E-02  2.29074502973E-02  2.32930299133E-02  2.36850897078E-02
  2.40837385888E-02  2.44890872945E-02  2.49012484245E-02  2.53203364706E-02
  2.57464678488E-02  2.61797609319E-02  2.66203360816E-02  2.70683156828E-02
  2.75238241772E-02  2.79869880979E-02  2.84579361045E-02  2.89367990188E-02
  2.94237098615E-02  2.99188038887E-02  3.04222186297E-02  3.09340939251E-02
  3.14545719659E-02  3.19837973325E-02  3.25219170356E-02  3.30690805561E-02
  3.36254398876E-02  3.41911495778E-02  3.47663667719E-02  3.53512512563E-02
  3.59459655025E-02  3.65506747129E-02  3.71655468660E-02  3.77907527637E-02
  3.84264660782E-02  3.90728634008E-02  3.97301242903E-02  4.03984313235E-02
  4.10779701454E-02  4.17689295214E-02  4.24715013888E-02  4.31858809113E-02
  4.39122665319E-02  4.46508600293E-02  4.54018665731E-02  4.61654947809E-02
  4.69419567767E-02  4.77314682493E-02  4.85342485126E-02  4.93505205662E-02
  5.01805111577E-02  5.10244508452E-02  5.18825740619E-02  5.27551191810E-02
  5.36423285816E-02  5.45444487165E-02  5.54617301804E-02  5.63944277796E-02
  5.73428006029E-02  5.83071120932E-02  5.92876301209E-02  6.02846270586E-02
  6.12983798563E-02  6.23291701183E-02  6.33772841821E-02  6.44430131971E-02
  6.55266532060E-02  6.66285052270E-02  6.77488753370E-02  6.88880747573E-02
  7.00464199394E-02  7.12242326534E-02  7.24218400769E-02  7.36395748865E-02
  7.48777753496E-02  7.61367854188E-02  7.74169548271E-02  7.87186391855E-02
  8.00422000813E-02  8.13880051787E-02  8.27564283213E-02  8.41478496353E-02
  8.55626556357E-02  8.70012393331E-02  8.84640003434E-02  8.99513449985E-02
  9.14636864593E-02  9.30014448303E-02  9.45650472766E-02  9.61549281422E-02
  9.77715290709E-02  9.94152991289E-02  1.01086694930E-01  1.02786180760E-01
  1.04514228711E-01  1.06271318807E-01  1.08057939140E-01  1.09874586004E-01
  1.11721764035E-01  1.13599986351E-01  1.15509774692E-01  1.17451659566E-01
  1.19426180399E-01  1.21433885682E-01  1.23475333123E-01  1.25551089804E-01
  1.27661732337E-01  1.29807847027E-01  1.31990030029E-01  1.34208887519E-01
  1.36465035862E-01  1.38759101778E-01  1.41091722525E-01  1.43463546067E-01
  1.45875231258E-01  1.48327448028E-01  1.50820877563E-01  1.53356212499E-01
  1.55934157111E-01  1.58555427512E-01  1.61220751849E-01  1.63930870508E-01
  1.66686536316E-01  1.69488514754E-01  1.72337584168E-01  1.75234535984E-01
  1.78180174929E-01  1.81175319255E-01  1.84220800966E-01  1.87317466049E-01
  1.90466174709E-01  1.93667801606E-01  1.96923236103E-01  2.00233382508E-01
  2.03599160327E-01  2.07021504520E-01  2.10501365760E-01  2.14039710698E-01
  2.17637522230E-01  2.21295799771E-01  2.25015559533E-01  2.28797834806E-01
  2.32643676248E-01  2.36554152171E-01  2.40530348845E-01  2.44573370794E-01
  2.48684341105E-01  2.52864401742E-01  2.57114713858E-01  2.61436458125E-01
  2.65830835053E-01  2.70299065332E-01  2.74842390165E-01  2.79462071616E-01
  2.84159392960E-01  2.88935659039E-01  2.93792196623E-01  2.98730354782E-01
  3.03751505259E-01  3.08857042850E-01  3.14048385792E-01  3.19326976159E-01
  3.24694280260E-01  3.30151789047E-01  3.35701018529E-01  3.41343510195E-01
  3.47080831441E-01  3.52914576003E-01  3.58846364404E-01  3.64877844400E-01
  3.71010691441E-01  3.77246609137E-01  3.83587329725E-01  3.90034614558E-01
  3.96590254591E-01  4.03256070875E-01  4.10033915071E-01  4.16925669955E-01
  4.23933249949E-01  4.31058601648E-01  4.38303704361E-01  4.45670570664E-01
  4.53161246956E-01  4.60777814028E-01  4.68522387644E-01  4.76397119122E-01
  4.84404195939E-01  4.92545842335E-01  5.00824319929E-01  5.09241928353E-01
  5.17801005886E-01  5.26503930103E-01  5.35353118540E-01  5.44351029362E-01
  5.53500162046E-01  5.62803058076E-01  5.72262301650E-01  5.81880520397E-01
  5.91660386107E-01  6.01604615470E-01  6.11715970838E-01  6.21997260984E-01
  6.32451341890E-01  6.43081117533E-01  6.53889540697E-01  6.64879613792E-01
  6.76054389687E-01  6.87416972557E-01  6.98970518749E-01  7.10718237656E-01
  7.22663392607E-01  7.34809301779E-01  7.47159339114E-01  7.59716935257E-01
  7.72485578509E-01  7.85468815798E-01  7.98670253662E-01  8.12093559253E-01
  8.25742461352E-01  8.39620751410E-01  8.53732284595E-01  8.68080980870E-01
  8.82670826074E-01  8.97505873038E-01  9.12590242702E-01  9.27928125266E-01
  9.43523781352E-01  9.59381543186E-01  9.75505815806E-01  9.91901078278E-01
  1.00857188495E+00  1.02552286670E+00  1.04275873226E+00  1.06028426946E+00
  1.07810434664E+00  1.09622391392E+00  1.11464800463E+00  1.13338173670E+00
  1.15243031406E+00  1.17179902810E+00  1.19149325915E+00  1.21151847795E+00
  1.23188024720E+00  1.25258422307E+00  1.27363615680E+00  1.29504189628E+00
  1.31680738769E+00  1.33893867714E+00  1.36144191235E+00  1.38432334437E+00
  1.40758932930E+00  1.43124633005E+00  1.45530091818E+00  1.47975977566E+00
  1.50462969678E+00  1.52991759001E+00  1.55563047993E+00  1.58177550917E+00
  1.60835994041E+00  1.63539115839E+00  1.66287667195E+00  1.69082411612E+00
  1.71924125428E+00  1.74813598025E+00  1.77751632054E+00  1.80739043652E+00
  1.83776662677E+00  1.86865332932E+00  1.90005912398E+00  1.93199273481E+00
  1.96446303246E+00  1.99747903665E+00  2.03104991872E+00  2.06518500412E+00
  2.09989377505E+00  2.13518587304E+00  2.17107110170E+00  2.20755942936E+00
  2.24466099192E+00  2.28238609559E+00  2.32074521982E+00  2.35974902017E+00
  2.39940833127E+00  2.43973416985E+00  2.48073773780E+00  2.52243042526E+00
  2.56482381381E+00  2.60792967964E+00  2.65175999690E+00  2.69632694095E+00
  2.74164289179E+00  2.78772043747E+00  2.83457237760E+00  2.88221172692E+00
  2.93065171888E+00  2.97990580936E+00  3.02998768035E+00  3.08091124381E+00
  3.13269064550E+00  3.18534026892E+00  3.23887473931E+00  3.29330892770E+00
  3.34865795504E+00  3.40493719642E+00  3.46216228533E+00  3.52034911799E+00
  3.57951385778E+00  3.63967293973E+00  3.70084307509E+00  3.76304125596E+00
  3.82628476000E+00  3.89059115527E+00  3.95597830506E+00  4.02246437289E+00
  4.09006782755E+00  4.15880744820E+00  4.22870232962E+00  4.29977188752E+00
  4.37203586388E+00  4.44551433251E+00  4.52022770456E+00  4.59619673422E+00
  4.67344252449E+00  4.75198653304E+00  4.83185057814E+00  4.91305684477E+00
  4.99562789075E+00  5.07958665301E+00  5.16495645396E+00  5.25176100799E+00
  5.34002442804E+00  5.42977123229E+00  5.52102635098E+00  5.61381513334E+00
  5.70816335464E+00  5.80409722331E+00  5.90164338828E+00  6.00082894632E+00
  6.10168144963E+00  6.20422891342E+00  6.30849982377E+00  6.41452314548E+00
  6.52232833018E+00  6.63194532442E+00  6.74340457808E+00  6.85673705279E+00
  6.97197423051E+00  7.08914812231E+00  7.20829127725E+00  7.32943679141E+00
  7.45261831711E+00  7.57787007223E+00  7.70522684972E+00  7.83472402730E+00
  7.96639757723E+00  8.10028407633E+00  8.23642071618E+00  8.37484531338E+00
  8.51559632009E+00  8.65871283471E+00  8.80423461277E+00  8.95220207791E+00
  9.10265633316E+00  9.25563917232E+00  9.41119309163E+00  9.56936130149E+00
  9.73018773855E+00  9.89371707784E+00  1.00599947452E+01  1.02290669300E+01
  1.04009805979E+01  1.05757835036E+01  1.07535242047E+01  1.09342520747E+01
  1.11180173170E+01  1.13048709787E+01  1.14948649648E+01  1.16880520526E+01
  1.18844859064E+01  1.20842210925E+01  1.22873130940E+01  1.24938183269E+01
  1.27037941549E+01  1.29172989061E+01  1.31343918886E+01  1.33551334076E+01
  1.35795847814E+01  1.38078083592E+01  1.40398675378E+01  1.42758267797E+01
  1.45157516305E+01  1.47597087377E+01  1.50077658685E+01  1.52599919295E+01
  1.55164569850E+01  1.57772322770E+01  1.60423902446E+01  1.63120045447E+01
  1.65861500718E+01  1.68649029792E+01  1.71483407000E+01  1.74365419688E+01
  1.77295868434E+01  1.80275567269E+01  1.83305343908E+01  1.86386039974E+01
  1.89518511235E+01  1.92703627844E+01  1.95942274574E+01  1.99235351072E+01
  2.02583772101E+01  2.05988467800E+01  2.09450383940E+01  2.12970482186E+01
  2.16549740367E+01  2.20189152743E+01  2.23889730286E+01  2.27652500957E+01
  2.31478509996E+01  2.35368820207E+01  2.39324512256E+01  2.43346684973E+01
  2.47436455654E+01  2.51594960371E+01  2.55823354293E+01  2.60122812000E+01
  2.64494527814E+01  2.68939716128E+01  2.73459611746E+01  2.78055470223E+01
  2.82728568215E+01  2.87480203837E+01  2.92311697016E+01  2.97224389867E+01
  3.02219647056E+01  3.07298856188E+01  3.12463428187E+01  3.17714797689E+01
  3.23054423442E+01  3.28483788709E+01  3.34004401683E+01  3.39617795903E+01
  3.45325530680E+01  3.51129191534E+01  3.57030390630E+01  3.63030767227E+01
  3.69131988136E+01  3.75335748179E+01  3.81643770663E+01  3.88057807857E+01
  3.94579641479E+01  4.01211083192E+01  4.07953975105E+01  4.14810190287E+01
  4.21781633287E+01  4.28870240661E+01  4.36077981513E+01  4.43406858039E+01
  4.50858906085E+01  4.58436195713E+01  4.66140831773E+01  4.73974954493E+01
  4.81940740067E+01  4.90040401266E+01  4.98276188047E+01  5.06650388181E+01
  5.15165327889E+01  5.23823372488E+01  5.32626927044E+01  5.41578437047E+01
  5.50680389085E+01  5.59935311535E+01  5.69345775270E+01  5.78914394368E+01
  5.88643826839E+01  5.98536775367E+01  6.08595988057E+01  6.18824259198E+01
  6.29224430044E+01  6.39799389597E+01  6.50552075414E+01  6.61485474421E+01
  6.72602623744E+01  6.83906611552E+01  6.95400577913E+01  7.07087715671E+01
  7.18971271327E+01  7.31054545945E+01  7.43340896069E+01  7.55833734652E+01
  7.68536532009E+01  7.81452816774E+01  7.94586176888E+01  8.07940260592E+01
  8.21518777438E+01  8.35325499324E+01  8.49364261540E+01  8.63638963833E+01
  8.78153571488E+01  8.92912116434E+01  9.07918698363E+01  9.23177485866E+01
  9.38692717593E+01  9.54468703431E+01  9.70509825698E+01  9.86820540366E+01
  1.00340537829E+02  1.02026894649E+02  1.03741592938E+02  1.05485109013E+02
  1.07257927195E+02  1.09060539946E+02  1.10893448002E+02  1.12757160516E+02
  1.14652195198E+02  1.16579078460E+02  1.18538345558E+02  1.20530540746E+02
  1.22556217425E+02  1.24615938296E+02  1.26710275515E+02  1.28839810859E+02
  1.31005135876E+02  1.33206852061E+02  1.35445571016E+02  1.37721914622E+02
  1.40036515210E+02  1.42390015740E+02  1.44783069977E+02  1.47216342675E+02
  1.49690509758E+02  1.52206258510E+02  1.54764287767E+02  1.57365308109E+02
  1.60010042057E+02  1.62699224279E+02  1.65433601785E+02  1.68213934143E+02
  1.71040993685E+02  1.73915565724E+02  1.76838448771E+02  1.79810454755E+02
  1.82832409254E+02  1.85905151719E+02  1.89029535708E+02  1.92206429128E+02
  1.95436714467E+02  1.98721289050E+02  2.02061065278E+02
  </PP_R>
  <PP_RAB>
  5.84539721509E-07  5.94363689193E-07  6.04352761723E-07  6.14509713906E-07
  6.24837367184E-07  6.35338590414E-07  6.46016300672E-07  6.56873464056E-07
  6.67913096515E-07  6.79138264684E-07  6.90552086739E-07  7.02157733257E-07
  7.13958428106E-07  7.25957449330E-07  7.38158130070E-07  7.50563859482E-07
  7.63178083680E-07  7.76004306698E-07  7.89046091457E-07  8.02307060760E-07
  8.15790898295E-07  8.29501349658E-07  8.43442223396E-07  8.57617392064E-07
  8.72030793300E-07  8.86686430919E-07  9.01588376026E-07  9.16740768146E-07
  9.32147816374E-07  9.47813800545E-07  9.63743072422E-07  9.79940056904E-07
  9.96409253259E-07  1.01315523637E-06  1.03018265800E-06  1.04749624811E-06
  1.06510081614E-06  1.08300125235E-06  1.10120252920E-06  1.11970970273E-06
  1.13852791393E-06  1.15766239021E-06  1.17711844681E-06  1.19690148833E-06
  1.21701701019E-06  1.23747060015E-06  1.25826793990E-06  1.27941480661E-06
  1.30091707455E-06  1.32278071671E-06  1.34501180646E-06  1.36761651925E-06
  1.39060113432E-06  1.41397203642E-06  1.43773571762E-06  1.46189877910E-06
  1.48646793297E-06  1.51145000416E-06  1.53685193229E-06  1.56268077362E-06
  1.58894370299E-06  1.61564801583E-06  1.64280113017E-06  1.67041058872E-06
  1.69848406096E-06  1.72702934524E-06  1.75605437101E-06  1.78556720094E-06
  1.81557603325E-06  1.84608920390E-06  1.87711518899E-06  1.90866260703E-06
  1.94074022139E-06  1.97335694275E-06  2.00652183150E-06  2.04024410033E-06
  2.07453311675E-06  2.10939840570E-06  2.14484965223E-06  2.18089670411E-06
  2.21754957466E-06  2.25481844546E-06  2.29271366921E-06  2.33124577262E-06
  2.37042545928E-06  2.41026361271E-06  2.45077129930E-06  2.49195977146E-06
  2.53384047069E-06  2.57642503078E-06  2.61972528107E-06  2.66375324966E-06
  2.70852116684E-06  2.75404146843E-06  2.80032679925E-06  2.84739001662E-06
  2.89524419398E-06  2.94390262446E-06  2.99337882459E-06  3.04368653808E-06
  3.09483973964E-06  3.14685263879E-06  3.19973968392E-06  3.25351556619E-06
  3.30819522372E-06  3.36379384563E-06  3.42032687635E-06  3.47781001986E-06
  3.53625924408E-06  3.59569078526E-06  3.65612115257E-06  3.71756713259E-06
  3.78004579405E-06  3.84357449254E-06  3.90817087533E-06  3.97385288627E-06
  4.04063877078E-06  4.10854708093E-06  4.17759668058E-06  4.24780675062E-06
  4.31919679429E-06  4.39178664261E-06  4.46559645992E-06  4.54064674939E-06
  4.61695835883E-06  4.69455248639E-06  4.77345068649E-06  4.85367487581E-06
  4.93524733936E-06  5.01819073668E-06  5.10252810815E-06  5.18828288134E-06
  5.27547887758E-06  5.36414031854E-06  5.45429183297E-06  5.54595846354E-06
  5.63916567379E-06  5.73393935520E-06  5.83030583442E-06  5.92829188053E-06
  6.02792471250E-06  6.12923200676E-06  6.23224190488E-06  6.33698302138E-06
  6.44348445169E-06  6.55177578022E-06  6.66188708860E-06  6.77384896401E-06
  6.88769250768E-06  7.00344934357E-06  7.12115162708E-06  7.24083205405E-06
  7.36252386983E-06  7.48626087846E-06  7.61207745214E-06  7.74000854073E-06
  7.87008968145E-06  8.00235700881E-06  8.13684726457E-06  8.27359780800E-06
  8.41264662624E-06  8.55403234487E-06  8.69779423859E-06  8.84397224220E-06
  8.99260696163E-06  9.14373968526E-06  9.29741239537E-06  9.45366777983E-06
  9.61254924390E-06  9.77410092234E-06  9.93836769167E-06  1.01053951826E-05
  1.02752297927E-05  1.04479186994E-05  1.06235098729E-05  1.08020520897E-05
  1.09835949460E-05  1.11681888715E-05  1.13558851435E-05  1.15467359010E-05
  1.17407941594E-05  1.19381138251E-05  1.21387497102E-05  1.23427575483E-05
  1.25501940096E-05  1.27611167165E-05  1.29755842601E-05  1.31936562162E-05
  1.34153931615E-05  1.36408566913E-05  1.38701094356E-05  1.41032150772E-05
  1.43402383693E-05  1.45812451532E-05  1.48263023767E-05  1.50754781128E-05
  1.53288415787E-05  1.55864631547E-05  1.58484144041E-05  1.61147680926E-05
  1.63855982093E-05  1.66609799864E-05  1.69409899206E-05  1.72257057943E-05
  1.75152066970E-05  1.78095730475E-05  1.81088866162E-05  1.84132305476E-05
  1.87226893837E-05  1.90373490872E-05  1.93572970656E-05  1.96826221955E-05
  2.00134148469E-05  2.03497669090E-05  2.06917718150E-05  2.10395245684E-05
  2.13931217694E-05  2.17526616419E-05  2.21182440602E-05  2.24899705775E-05
  2.28679444534E-05  2.32522706831E-05  2.36430560264E-05  2.40404090374E-05
  2.44444400943E-05  2.48552614306E-05  2.52729871660E-05  2.56977333382E-05
  2.61296179349E-05  2.65687609267E-05  2.70152843008E-05  2.74693120943E-05
  2.79309704288E-05  2.84003875458E-05  2.88776938420E-05  2.93630219055E-05
  2.98565065528E-05  3.03582848661E-05  3.08684962315E-05  3.13872823777E-05
  3.19147874153E-05  3.24511578768E-05  3.29965427575E-05  3.35510935567E-05
  3.41149643198E-05  3.46883116813E-05  3.52712949080E-05  3.58640759433E-05
  3.64668194526E-05  3.70796928685E-05  3.77028664375E-05  3.83365132673E-05
  3.89808093751E-05  3.96359337362E-05  4.03020683338E-05  4.09793982094E-05
  4.16681115148E-05  4.23683995635E-05  4.30804568845E-05  4.38044812760E-05
  4.45406738608E-05  4.52892391413E-05  4.60503850573E-05  4.68243230429E-05
  4.76112680861E-05  4.84114387877E-05  4.92250574224E-05  5.00523500007E-05
  5.08935463315E-05  5.17488800856E-05  5.26185888615E-05  5.35029142503E-05
  5.44021019039E-05  5.53164016022E-05  5.62460673233E-05  5.71913573136E-05
  5.81525341599E-05  5.91298648618E-05  6.01236209063E-05  6.11340783433E-05
  6.21615178618E-05  6.32062248683E-05  6.42684895659E-05  6.53486070350E-05
  6.64468773151E-05  6.75636054884E-05  6.86991017643E-05  6.98536815658E-05
  7.10276656169E-05  7.22213800318E-05  7.34351564056E-05  7.46693319061E-05
  7.59242493678E-05  7.72002573870E-05  7.84977104186E-05  7.98169688744E-05
  8.11583992238E-05  8.25223740947E-05  8.39092723780E-05  8.53194793321E-05
  8.67533866901E-05  8.82113927690E-05  8.96939025797E-05  9.12013279401E-05
  9.27340875891E-05  9.42926073032E-05  9.58773200145E-05  9.74886659312E-05
  9.91270926598E-05  1.00793055329E-04  1.02487016718E-04  1.04209447381E-04
  1.05960825783E-04  1.07741638429E-04  1.09552380001E-04  1.11393553494E-04
  1.13265670357E-04  1.15169250634E-04  1.17104823111E-04  1.19072925458E-04
  1.21074104383E-04  1.23108915783E-04  1.25177924895E-04  1.27281706458E-04
  1.29420844868E-04  1.31595934346E-04  1.33807579096E-04  1.36056393479E-04
  1.38343002179E-04  1.40668040380E-04  1.43032153941E-04  1.45435999576E-04
  1.47880245035E-04  1.50365569291E-04  1.52892662727E-04  1.55462227331E-04
  1.58074976886E-04  1.60731637173E-04  1.63432946171E-04  1.66179654260E-04
  1.68972524433E-04  1.71812332505E-04  1.74699867329E-04  1.77635931018E-04
  1.80621339163E-04  1.83656921064E-04  1.86743519957E-04  1.89881993251E-04
  1.93073212764E-04  1.96318064967E-04  1.99617451227E-04  2.02972288063E-04
  2.06383507396E-04  2.09852056808E-04  2.13378899806E-04  2.16965016094E-04
  2.20611401837E-04  2.24319069943E-04  2.28089050344E-04  2.31922390282E-04
  2.35820154597E-04  2.39783426027E-04  2.43813305506E-04  2.47910912471E-04
  2.52077385172E-04  2.56313880990E-04  2.60621576757E-04  2.65001669082E-04
  2.69455374685E-04  2.73983930736E-04  2.78588595197E-04  2.83270647170E-04
  2.88031387255E-04  2.92872137910E-04  2.97794243821E-04  3.02799072270E-04
  3.07888013519E-04  3.13062481196E-04  3.18323912687E-04  3.23673769533E-04
  3.29113537841E-04  3.34644728693E-04  3.40268878565E-04  3.45987549759E-04
  3.51802330830E-04  3.57714837032E-04  3.63726710767E-04  3.69839622039E-04
  3.76055268917E-04  3.82375378010E-04  3.88801704944E-04  3.95336034852E-04
  4.01980182867E-04  4.08735994629E-04  4.15605346796E-04  4.22590147564E-04
  4.29692337202E-04  4.36913888586E-04  4.44256807748E-04  4.51723134435E-04
  4.59314942676E-04  4.67034341353E-04  4.74883474796E-04  4.82864523368E-04
  4.90979704080E-04  4.99231271200E-04  5.07621516883E-04  5.16152771806E-04
  5.24827405819E-04  5.33647828597E-04  5.42616490314E-04  5.51735882324E-04
  5.61008537848E-04  5.70437032685E-04  5.80023985920E-04  5.89772060660E-04
  5.99683964764E-04  6.09762451603E-04  6.20010320822E-04  6.30430419116E-04
  6.41025641026E-04  6.51798929735E-04  6.62753277893E-04  6.73891728446E-04
  6.85217375479E-04  6.96733365078E-04  7.08442896202E-04  7.20349221576E-04
  7.32455648587E-04  7.44765540210E-04  7.57282315940E-04  7.70009452737E-04
  7.82950486000E-04  7.96109010544E-04  8.09488681599E-04  8.23093215825E-04
  8.36926392349E-04  8.50992053808E-04  8.65294107421E-04  8.79836526071E-04
  8.94623349414E-04  9.09658684996E-04  9.24946709394E-04  9.40491669382E-04
  9.56297883103E-04  9.72369741274E-04  9.88711708404E-04  1.00532832403E-03
  1.02222420399E-03  1.03940404169E-03  1.05687260942E-03  1.07463475967E-03
  1.09269542649E-03  1.11105962684E-03  1.12973246201E-03  1.14871911901E-03
  1.16802487205E-03  1.18765508394E-03  1.20761520767E-03  1.22791078783E-03
  1.24854746221E-03  1.26953096337E-03  1.29086712017E-03  1.31256185948E-03
  1.33462120774E-03  1.35705129270E-03  1.37985834508E-03  1.40304870031E-03
  1.42662880032E-03  1.45060519527E-03  1.47498454544E-03  1.49977362303E-03
  1.52497931404E-03  1.55060862023E-03  1.57666866100E-03  1.60316667542E-03
  1.63011002424E-03  1.65750619187E-03  1.68536278855E-03  1.71368755239E-03
  1.74248835158E-03  1.77177318651E-03  1.80155019205E-03  1.83182763978E-03
  1.86261394031E-03  1.89391764557E-03  1.92574745125E-03  1.95811219915E-03
  1.99102087971E-03  2.02448263442E-03  2.05850675843E-03  2.09310270312E-03
  2.12828007868E-03  2.16404865683E-03  2.20041837353E-03  2.23739933171E-03
  2.27500180408E-03  2.31323623603E-03  2.35211324847E-03  2.39164364083E-03
  2.43183839403E-03  2.47270867352E-03  2.51426583244E-03  2.55652141470E-03
  2.59948715823E-03  2.64317499825E-03  2.68759707054E-03  2.73276571485E-03
  2.77869347832E-03  2.82539311896E-03  2.87287760919E-03  2.92116013945E-03
  2.97025412187E-03  3.02017319397E-03  3.07093122249E-03  3.12254230721E-03
  3.17502078487E-03  3.22838123316E-03  3.28263847478E-03  3.33780758153E-03
  3.39390387851E-03  3.45094294839E-03  3.50894063572E-03  3.56791305135E-03
  3.62787657688E-03  3.68884786923E-03  3.75084386527E-03  3.81388178650E-03