
     Program PHONON v.4.3.2     starts on 23Jun2014 at  4:10:16 

     This program is part of the open-source Quantum ESPRESSO suite
     for quantum simulation of materials; please cite
         "P. Giannozzi et al., J. Phys.:Condens. Matter 21 395502 (2009);
          URL http://www.quantum-espresso.org", 
     in publications or presentations arising from this work. More details at
     http://www.quantum-espresso.org/wiki/index.php/Citing_Quantum-ESPRESSO

     Ultrasoft (Vanderbilt) Pseudopotentials
      Title line not specified: using 'default'.

   Info: using nr1, nr2, nr3 values from input

   Info: using nr1s, nr2s, nr3s values from input
 
     G-vector sticks info
     --------------------
     sticks:   dense  smooth     PW     G-vecs:    dense   smooth      PW
     Sum         409     409    127                 5329     5329     965
 


     Dynamical matrices for ( 4, 4, 4,)  uniform grid of q-points
     (   8q-points):
       N         xq(1)         xq(2)         xq(3) 
       1   0.000000000   0.000000000   0.000000000
       2  -0.250000000   0.250000000  -0.250000000
       3   0.500000000  -0.500000000   0.500000000
       4   0.000000000   0.500000000   0.000000000
       5   0.750000000  -0.250000000   0.750000000
       6   0.500000000   0.000000000   0.500000000
       7   0.000000000  -1.000000000   0.000000000
       8  -0.500000000  -1.000000000   0.000000000

     Calculation of q =    0.0000000   0.0000000   0.0000000

                                                                                

     bravais-lattice index     =            2
     lattice parameter (alat)  =       7.6670  a.u.
     unit-cell volume          =     112.6721 (a.u.)^3
     number of atoms/cell      =            1
     number of atomic types    =            1
     kinetic-energy cut-off    =      50.0000  Ry
     charge density cut-off    =     200.0000  Ry
     convergence threshold     =      1.0E-14
     beta                      =       0.7000
     number of iterations used =            4
     Exchange-correlation      =  SLA  PW   PBE  PBE ( 1 4 3 4 0)
     EXX-fraction              =        0.00


     celldm(1)=    7.66700  celldm(2)=    0.00000  celldm(3)=    0.00000
     celldm(4)=    0.00000  celldm(5)=    0.00000  celldm(6)=    0.00000

     crystal axes: (cart. coord. in units of alat)
               a(1) = ( -0.5000  0.0000  0.5000 )  
               a(2) = (  0.0000  0.5000  0.5000 )  
               a(3) = ( -0.5000  0.5000  0.0000 )  

     reciprocal axes: (cart. coord. in units 2 pi/alat)
               b(1) = ( -1.0000 -1.0000  1.0000 )  
               b(2) = (  1.0000  1.0000  1.0000 )  
               b(3) = ( -1.0000  1.0000 -1.0000 )  


     Atoms inside the unit cell: 

   Cartesian axes

     site n.  atom      mass           positions (alat units)
        1        Al  26.9820   tau( 1) = (    0.00000    0.00000    0.00000  )

     Computing dynamical matrix for 
                    q = (   0.0000000   0.0000000   0.0000000 )
 
     49 Sym.Ops. (with q -> -q+G )


     G cutoff =  297.7976  (   5329 G-vectors)     FFT grid: ( 25, 25, 25)

     number of k points=    72  Fermi-Dirac smearing, width (Ry)=  0.0030

     PseudoPot. # 1 for Al read from file:
     ./tmp/al.save/Al.pbe-rrkj.UPF
     MD5 check sum: 440523622426eeadf7598608e552b40a
     Pseudo is Norm-conserving, Zval =  3.0
     Generated by new atomic code, or converted to UPF format
     Using radial grid of  879 points,  4 beta functions with: 
                l(1) =   0
                l(2) =   0
                l(3) =   1
                l(4) =   1


     Atomic displacements:
     There are   1 irreducible representations

     Representation     1      3 modes -T_1u G_15  G_4- To be done



     Alpha used in Ewald sum =   2.3000
     PHONON       :     1.37s CPU         1.41s WALL



     Representation #  1 modes #   1  2  3

     Self-consistent Calculation
 
     Pert. #  1: Fermi energy shift (Ry) =    -0.6893E-25    -0.7523E-36
     Pert. #  2: Fermi energy shift (Ry) =    -0.8616E-25    -0.6269E-37
     Pert. #  3: Fermi energy shift (Ry) =    -0.8272E-24     0.0000E+00

      iter #   1 total cpu time :     4.9 secs   av.it.:   3.6
      thresh= 0.100E-01 alpha_mix =  0.700 |ddv_scf|^2 =  0.121E-07
 
     Pert. #  1: Fermi energy shift (Ry) =    -0.1379E-24     0.3673E-39
     Pert. #  2: Fermi energy shift (Ry) =    -0.8099E-24    -0.3980E-39
     Pert. #  3: Fermi energy shift (Ry) =    -0.4136E-24    -0.4898E-39

      iter #   2 total cpu time :     8.0 secs   av.it.:   6.3
      thresh= 0.110E-04 alpha_mix =  0.700 |ddv_scf|^2 =  0.174E-08
 
     Pert. #  1: Fermi energy shift (Ry) =    -0.1103E-23     0.2296E-40
     Pert. #  2: Fermi energy shift (Ry) =     0.3447E-25     0.1913E-41
     Pert. #  3: Fermi energy shift (Ry) =     0.5515E-24     0.0000E+00

      iter #   3 total cpu time :    11.1 secs   av.it.:   6.3
      thresh= 0.418E-05 alpha_mix =  0.700 |ddv_scf|^2 =  0.849E-12
 
     Pert. #  1: Fermi energy shift (Ry) =    -0.1241E-23     0.1837E-39
     Pert. #  2: Fermi energy shift (Ry) =    -0.2930E-24     0.1531E-40
     Pert. #  3: Fermi energy shift (Ry) =    -0.1172E-23     0.0000E+00

      iter #   4 total cpu time :    14.5 secs   av.it.:   6.7
      thresh= 0.922E-07 alpha_mix =  0.700 |ddv_scf|^2 =  0.256E-13
 
     Pert. #  1: Fermi energy shift (Ry) =    -0.1723E-23     0.1837E-39
     Pert. #  2: Fermi energy shift (Ry) =     0.2585E-24     0.1531E-40
     Pert. #  3: Fermi energy shift (Ry) =     0.4136E-24     0.0000E+00

      iter #   5 total cpu time :    17.5 secs   av.it.:   6.1
      thresh= 0.160E-07 alpha_mix =  0.700 |ddv_scf|^2 =  0.763E-16

     End of self-consistent calculation

     Convergence has been achieved 
 
     Number of q in the star =    1
     List of q in the star:
          1   0.000000000   0.000000000   0.000000000

     Diagonalizing the dynamical matrix

     q = (    0.000000000   0.000000000   0.000000000 ) 

 **************************************************************************
     omega( 1) =       0.137696 [THz] =       4.593059 [cm-1]
     omega( 2) =       0.137696 [THz] =       4.593059 [cm-1]
     omega( 3) =       0.137696 [THz] =       4.593059 [cm-1]
 **************************************************************************

     Mode symmetry, O_h (m-3m)  point group:

     omega(  1 -  3) =          4.6  [cm-1]   --> T_1u G_15  G_4- I  

 **************************************************************************

     Calculation of q =   -0.2500000   0.2500000  -0.2500000
 
     G-vector sticks info
     --------------------
     sticks:   dense  smooth     PW     G-vecs:    dense   smooth      PW
     Sum         409     409    151                 5329     5329    1139
 


     bravais-lattice index     =            2
     lattice parameter (alat)  =       7.6670  a.u.
     unit-cell volume          =     112.6721 (a.u.)^3
     number of atoms/cell      =            1
     number of atomic types    =            1
     number of electrons       =         3.00
     number of Kohn-Sham states=            6
     kinetic-energy cutoff     =      50.0000  Ry
     charge density cutoff     =     200.0000  Ry
     Exchange-correlation      =  SLA  PW   PBE  PBE ( 1 4 3 4 0)
     EXX-fraction              =        0.00

     celldm(1)=   7.667000  celldm(2)=   0.000000  celldm(3)=   0.000000
     celldm(4)=   0.000000  celldm(5)=   0.000000  celldm(6)=   0.000000

     crystal axes: (cart. coord. in units of alat)
               a(1) = (  -0.500000   0.000000   0.500000 )  
               a(2) = (   0.000000   0.500000   0.500000 )  
               a(3) = (  -0.500000   0.500000   0.000000 )  

     reciprocal axes: (cart. coord. in units 2 pi/alat)
               b(1) = ( -1.000000 -1.000000  1.000000 )  
               b(2) = (  1.000000  1.000000  1.000000 )  
               b(3) = ( -1.000000  1.000000 -1.000000 )  


     PseudoPot. # 1 for Al read from file:
     ./tmp/al.save/Al.pbe-rrkj.UPF
     MD5 check sum: 440523622426eeadf7598608e552b40a
     Pseudo is Norm-conserving, Zval =  3.0
     Generated by new atomic code, or converted to UPF format
     Using radial grid of  879 points,  4 beta functions with: 
                l(1) =   0
                l(2) =   0
                l(3) =   1
                l(4) =   1

     atomic species   valence    mass     pseudopotential
        Al             3.00    26.98200     Al( 1.00)

     48 Sym.Ops. (with inversion)


   Cartesian axes

     site n.     atom                  positions (alat units)
         1           Al  tau(   1) = (   0.0000000   0.0000000   0.0000000  )

     number of k points=   728  Fermi-Dirac smearing, width (Ry)=  0.0030

     Number of k-points >= 100: set verbosity='high' to print them.

     Dense  grid:     5329 G-vectors     FFT dimensions: (  25,  25,  25)

     Largest allocated arrays     est. size (Mb)     dimensions
        Kohn-Sham Wavefunctions         0.06 Mb     (    692,    6)
        NL pseudopotentials             0.08 Mb     (    692,    8)
        Each V/rho on FFT grid          0.24 Mb     (  15625)
        Each G-vector array             0.04 Mb     (   5329)
        G-vector shells                 0.00 Mb     (    101)
     Largest temporary arrays     est. size (Mb)     dimensions
        Auxiliary wavefunctions         0.25 Mb     (    692,   24)
        Each subspace H/S matrix        0.01 Mb     (  24,  24)
        Each <psi_i|beta_j> matrix      0.00 Mb     (      8,    6)

     The potential is recalculated from file :
     ./tmp/_ph0/al.save/charge-density.dat

     Starting wfc are    4 atomic +    2 random wfc

     total cpu time spent up to now is        0.2 secs

     per-process dynamical memory:     7.9 Mb

     Band Structure Calculation
     Davidson diagonalization with overlap

     ethr =  3.33E-10,  avg # of iterations = 14.8

     total cpu time spent up to now is       64.5 secs

     End of band structure calculation

          k = 0.0000 0.0000 0.0000     band energies (ev):

    -3.1743  20.4239  20.4239  20.4239  21.7677  21.7677

          k =-0.2500 0.2500-0.2500     band energies (ev):

    -1.5029  11.2708  18.6673  18.6673  22.0995  22.5048

          k =-0.0833 0.0833-0.0833     band energies (ev):

    -2.9877  17.7857  19.8225  19.8225  22.4809  22.6560

          k =-0.3333 0.3333-0.3333     band energies (ev):

    -0.2151   8.3517  18.5271  18.5271  21.1151  21.1151

          k =-0.1667 0.1667-0.1667     band energies (ev):

    -2.4293  14.4469  19.1115  19.1115  22.3173  23.7322

          k =-0.4167 0.4167-0.4167     band energies (ev):

     1.4247   5.7263  18.6982  18.6982  20.0017  20.0017

          k =-0.2500 0.2500-0.2500     band energies (ev):

    -1.5029  11.2708  18.6673  18.6673  22.0995  22.5048

          k =-0.5000 0.5000-0.5000     band energies (ev):

     3.3024   3.5192  19.1168  19.1168  19.2668  19.2668

          k =-0.3333 0.3333-0.3333     band energies (ev):

    -0.2151   8.3517  18.5271  18.5271  21.1151  21.1151

          k =-0.5833 0.5833-0.5833     band energies (ev):

     1.4247   5.7263  18.6982  18.6982  20.0017  20.0017

          k =-0.4167 0.4167-0.4167     band energies (ev):

     1.4247   5.7263  18.6982  18.6982  20.0017  20.0017

          k =-0.6667 0.6667-0.6667     band energies (ev):

    -0.2151   8.3517  18.5271  18.5271  21.1151  21.1151

          k = 0.5000-0.5000 0.5000     band energies (ev):

     3.3024   3.5192  19.1168  19.1168  19.2668  19.2668

          k = 0.2500-0.2500 0.2500     band energies (ev):

    -1.5029  11.2708  18.6673  18.6673  22.0995  22.5048

          k = 0.0000 0.1667 0.0000     band energies (ev):

    -2.9256  18.6682  18.6682  19.0013  21.2085  23.8955

          k =-0.2500 0.4167-0.2500     band energies (ev):

    -0.5208   9.4396  16.9673  18.5429  18.9764  23.3912

          k =-0.0833 0.2500-0.0833     band energies (ev):

    -2.4912  15.6436  17.7907  19.0839  21.5692  22.6018

          k =-0.3333 0.5000-0.3333     band energies (ev):

     1.0011   6.7206  17.0298  17.7153  18.6450  22.2012

          k =-0.1667 0.3333-0.1667     band energies (ev):

    -1.6877  12.4354  17.2217  18.7409  20.5221  23.3954

          k =-0.4167 0.5833-0.4167     band energies (ev):

     2.8627   4.3119  16.7806  17.4102  19.0602  21.3012

          k =-0.2500 0.4167-0.2500     band energies (ev):

    -0.5208   9.4396  16.9673  18.5429  18.9764  23.3912

          k =-0.5000 0.6667-0.5000     band energies (ev):

     2.2069   5.0768  16.1717  18.1080  19.8000  20.7123

          k =-0.3333 0.5000-0.3333     band energies (ev):

     1.0011   6.7206  17.0298  17.7153  18.6450  22.2012

          k =-0.5833 0.7500-0.5833     band energies (ev):

     0.4551   7.5920  15.8927  19.1138  20.4457  20.8549

          k = 0.5833-0.4167 0.5833     band energies (ev):

     2.8627   4.3119  16.7806  17.4102  19.0602  21.3012

          k = 0.3333-0.1667 0.3333     band energies (ev):

    -0.9497  10.4027  15.9464  20.2501  20.6601  22.1985

          k = 0.5000-0.3333 0.5000     band energies (ev):

     2.2069   5.0768  16.1717  18.1080  19.8000  20.7123

          k = 0.2500-0.0833 0.2500     band energies (ev):

    -1.9963  13.4573  16.3456  20.7067  22.0087  23.2184

          k = 0.4167-0.2500 0.4167     band energies (ev):

     0.4551   7.5920  15.8927  19.1138  20.4457  20.8549

          k = 0.1667 0.0000 0.1667     band energies (ev):

    -2.6772  16.4118  17.3362  20.9131  22.0359  23.0825

          k = 0.3333-0.1667 0.3333     band energies (ev):

    -0.9497  10.4027  15.9464  20.2501  20.6601  22.1985

          k = 0.0833 0.0833 0.0833     band energies (ev):

    -2.9877  17.7857  19.8225  19.8225  22.4809  22.6560

          k = 0.2500-0.0833 0.2500     band energies (ev):

    -1.9963  13.4573  16.3456  20.7067  22.0087  23.2184

          k = 0.0000 0.1667 0.0000     band energies (ev):

    -2.9256  18.6682  18.6682  19.0013  21.2085  23.8955

          k = 0.1667 0.0000 0.1667     band energies (ev):

    -2.6772  16.4118  17.3362  20.9131  22.0359  23.0825

          k =-0.0833 0.2500-0.0833     band energies (ev):

    -2.4912  15.6436  17.7907  19.0839  21.5692  22.6018

          k = 0.0000 0.3333 0.0000     band energies (ev):

    -2.1817  16.7856  16.7856  16.9827  19.9699  20.2737

          k =-0.2500 0.5833-0.2500     band energies (ev):

     0.9397   8.0471  15.0886  15.6868  17.4119  24.4777

          k =-0.0833 0.4167-0.0833     band energies (ev):

    -1.5029  13.8509  16.1000  17.4236  18.2192  20.4184

          k =-0.3333 0.6667-0.3333     band energies (ev):

     2.6837   5.5457  14.0246  15.9590  17.7442  23.7298

          k =-0.1667 0.5000-0.1667     band energies (ev):

    -0.4599  10.8362  15.7339  16.4749  17.3818  22.2302

          k =-0.4167 0.7500-0.4167     band energies (ev):

     3.3382   4.7794  13.2979  16.5508  18.4053  23.0435

          k =-0.2500 0.5833-0.2500     band energies (ev):

     0.9397   8.0471  15.0886  15.6868  17.4119  24.4777

          k =-0.5000 0.8333-0.5000     band energies (ev):

     1.4845   7.1628  12.9212  17.4616  19.3928  22.6638

          k = 0.6667-0.3333 0.6667     band energies (ev):

     2.6837   5.5457  14.0246  15.9590  17.7442  23.7298

          k = 0.4167-0.0833 0.4167     band energies (ev):

    -0.0322   9.8100  12.9322  18.6858  20.6857  22.5727

          k = 0.5833-0.2500 0.5833     band energies (ev):

     3.3382   4.7794  13.2979  16.5508  18.4053  23.0435

          k = 0.3333 0.0000 0.3333     band energies (ev):

    -1.1953  12.3106  13.7022  20.1984  22.2298  22.3755

          k = 0.5000-0.1667 0.5000     band energies (ev):

     1.4845   7.1628  12.9212  17.4616  19.3928  22.6638

          k = 0.2500 0.0833 0.2500     band energies (ev):

    -1.9963  13.4573  16.3456  20.7067  22.0087  23.2184

          k = 0.4167-0.0833 0.4167     band energies (ev):

    -0.0322   9.8100  12.9322  18.6858  20.6857  22.5727

          k = 0.1667 0.1667 0.1667     band energies (ev):

    -2.4293  14.4469  19.1115  19.1115  22.3173  23.7322

          k = 0.3333 0.0000 0.3333     band energies (ev):

    -1.1953  12.3106  13.7022  20.1984  22.2298  22.3755

          k = 0.0833 0.2500 0.0833     band energies (ev):

    -2.4912  15.6436  17.7907  19.0839  21.5692  22.6018

          k = 0.0000 0.5000 0.0000     band energies (ev):

    -0.9499  15.3022  15.3022  15.3050  16.0530  18.7431

          k =-0.2500 0.7500-0.2500     band energies (ev):

     2.8582   7.1111  11.4857  14.8339  16.5246  23.8242

          k =-0.0833 0.5833-0.0833     band energies (ev):

    -0.0330  12.4811  14.2007  14.8261  16.0881  19.2571

          k =-0.3333 0.8333-0.3333     band energies (ev):

     4.6869   4.9501  10.6472  15.3175  17.0989  25.6916

          k =-0.1667 0.6667-0.1667     band energies (ev):

     1.2404   9.6791  12.6765  14.6701  16.2501  21.2710

          k =-0.4167 0.9167-0.4167     band energies (ev):

     2.8647   7.0310  10.2085  16.1218  17.9996  25.2164

          k = 0.7500-0.2500 0.7500     band energies (ev):

     2.8582   7.1111  11.4857  14.8339  16.5246  23.8242

          k = 0.5000 0.0000 0.5000     band energies (ev):

     1.2428   9.0897  10.5860  17.2463  19.2128  24.7917

          k = 0.6667-0.1667 0.6667     band energies (ev):

     4.6869   4.9501  10.6472  15.3175  17.0989  25.6916

          k = 0.4167 0.0833 0.4167     band energies (ev):

    -0.0322   9.8100  12.9322  18.6858  20.6857  22.5727

          k = 0.5833-0.0833 0.5833     band energies (ev):

     2.8647   7.0310  10.2085  16.1218  17.9996  25.2164

          k = 0.3333 0.1667 0.3333     band energies (ev):

    -0.9497  10.4027  15.9464  20.2501  20.6601  22.1985

          k = 0.5000 0.0000 0.5000     band energies (ev):

     1.2428   9.0897  10.5860  17.2463  19.2128  24.7917

          k = 0.2500 0.2500 0.2500     band energies (ev):

    -1.5029  11.2708  18.6673  18.6673  22.0995  22.5048

          k = 0.0000 0.6667 0.0000     band energies (ev):

     0.7560  12.2041  14.0838  14.2412  14.2412  17.7134

          k =-0.2500 0.9167-0.2500     band energies (ev):

     5.1471   6.6293   8.3548  14.4080  16.0621  23.4584

          k =-0.0833 0.7500-0.0833     band energies (ev):

     1.8992  10.5275  11.5923  13.9770  15.1550  18.4274

          k =-0.3333 1.0000-0.3333     band energies (ev):

     4.5813   6.7906   8.2498  15.1040  16.8747  26.4260

          k = 0.8333-0.1667 0.8333     band energies (ev):

     3.3805   8.8865   9.3495  14.0326  15.5475  20.6654

          k = 0.5833 0.0833 0.5833     band energies (ev):

     2.8647   7.0310  10.2085  16.1218  17.9996  25.2164

          k = 0.7500-0.0833 0.7500     band energies (ev):

     5.1471   6.6293   8.3548  14.4080  16.0621  23.4584

          k = 0.5000 0.1667 0.5000     band energies (ev):

     1.4845   7.1628  12.9212  17.4616  19.3928  22.6638

          k = 0.6667 0.0000 0.6667     band energies (ev):

     4.5813   6.7906   8.2498  15.1040  16.8747  26.4260

          k = 0.4167 0.2500 0.4167     band energies (ev):

     0.4551   7.5920  15.8927  19.1138  20.4457  20.8549

          k = 0.0000 0.8333 0.0000     band energies (ev):

     2.9044   8.7613  13.3456  13.6051  13.6051  17.0546

          k =-0.2500 1.0833-0.2500     band energies (ev):

     5.1471   6.6293   8.3548  14.4080  16.0621  23.4584

          k = 0.9167-0.0833 0.9167     band energies (ev):

     4.2149   7.3605  11.1214  13.5530  14.6844  17.9971

          k = 0.6667 0.1667 0.6667     band energies (ev):

     4.6869   4.9501  10.6472  15.3175  17.0989  25.6916

          k = 0.8333 0.0000 0.8333     band energies (ev):

     5.4139   6.7477   8.7924  13.8203  15.3100  20.4591

          k = 0.5833 0.2500 0.5833     band energies (ev):

     3.3382   4.7794  13.2979  16.5508  18.4053  23.0435

          k = 0.0000-1.0000 0.0000     band energies (ev):

     4.9556   6.2776  13.0989  13.3933  13.3933  16.8288

          k =-0.2500-0.7500-0.2500     band energies (ev):

     2.8582   7.1111  11.4857  14.8339  16.5246  23.8242

          k =-0.1667 0.3333 0.0000     band energies (ev):

    -1.9345  14.3749  15.5244  19.7814  20.3306  21.5802

          k =-0.4167 0.5833-0.2500     band energies (ev):

     1.9060   6.1877  14.5934  15.9645  20.1284  21.5344

          k =-0.2500 0.4167-0.0833     band energies (ev):

    -1.0111  11.6411  14.6515  18.5935  19.9547  22.8602

          k =-0.5000 0.6667-0.3333     band energies (ev):

     3.7653   4.0036  14.9577  15.2658  20.4866  20.8666

          k =-0.3333 0.5000-0.1667     band energies (ev):

     0.2723   8.7884  14.4428  17.1187  19.9233  22.6345

          k =-0.5833 0.7500-0.4167     band energies (ev):

     1.9060   6.1877  14.5934  15.9645  20.1284  21.5344

          k = 0.5833-0.4167 0.7500     band energies (ev):

     1.9060   6.1877  14.5934  15.9645  20.1284  21.5344

          k = 0.3333-0.1667 0.5000     band energies (ev):

     0.2723   8.7884  14.4428  17.1187  19.9233  22.6345

          k = 0.5000-0.3333 0.6667     band energies (ev):

     3.7653   4.0036  14.9577  15.2658  20.4866  20.8666

          k = 0.2500-0.0833 0.4167     band energies (ev):

    -1.0111  11.6411  14.6515  18.5935  19.9547  22.8602

          k =-0.1667 0.5000 0.0000     band energies (ev):

    -0.7047  12.7736  14.0123  16.2976  18.2783  20.3277

          k =-0.4167 0.7500-0.2500     band energies (ev):

     3.8062   5.2512  12.3732  13.7629  19.3905  23.1875

          k =-0.2500 0.5833-0.0833     band energies (ev):

     0.4541  10.2619  13.3071  14.6946  18.7244  21.8575

          k =-0.5000 0.8333-0.3333     band energies (ev):

     3.1613   5.9931  11.7826  14.4728  20.1338  22.5824

          k = 0.6667-0.3333 0.8333     band energies (ev):

     1.9642   7.6242  13.1452  13.5684  18.9426  23.8145

          k = 0.4167-0.0833 0.5833     band energies (ev):

     1.4236   8.4229  11.5766  15.5273  21.1565  22.2309

          k = 0.5833-0.2500 0.7500     band energies (ev):

     3.8062   5.2512  12.3732  13.7629  19.3905  23.1875

          k = 0.3333 0.0000 0.5000     band energies (ev):

     0.0286  10.7011  12.1584  16.9079  21.6490  22.3281

          k = 0.5000-0.1667 0.6667     band energies (ev):

     3.1613   5.9931  11.7826  14.4728  20.1338  22.5824

          k = 0.2500 0.0833 0.4167     band energies (ev):

    -1.0111  11.6411  14.6515  18.5935  19.9547  22.8602

          k = 0.4167-0.0833 0.5833     band energies (ev):

     1.4236   8.4229  11.5766  15.5273  21.1565  22.2309

          k = 0.1667 0.1667 0.3333     band energies (ev):

    -1.6877  12.4354  17.2217  18.7409  20.5221  23.3954

          k = 0.3333 0.0000 0.5000     band energies (ev):

     0.0286  10.7011  12.1584  16.9079  21.6490  22.3281

          k = 0.0833 0.2500 0.2500     band energies (ev):

    -1.9963  13.4573  16.3456  20.7067  22.0087  23.2184

          k =-0.1667 0.6667 0.0000     band energies (ev):

     0.9984  11.6244  12.3430  13.0417  17.1582  19.3536

          k =-0.4167 0.9167-0.2500     band energies (ev):

     4.7507   6.1045   9.2740  13.3004  18.9760  25.2112

          k = 0.7500-0.2500 0.9167     band energies (ev):

     2.3796   9.3282  11.0003  12.4914  17.8462  21.0935

          k = 0.5000 0.0000 0.6667     band energies (ev):

     2.9233   7.9396   9.4207  14.2483  19.9426  24.4225

          k = 0.6667-0.1667 0.8333     band energies (ev):

     4.0907   6.9195   9.9454  12.7001  18.2989  23.6785

          k = 0.4167 0.0833 0.5833     band energies (ev):

     1.4236   8.4229  11.5766  15.5273  21.1565  22.2309

          k = 0.5833-0.0833 0.7500     band energies (ev):

     4.7507   6.1045   9.2740  13.3004  18.9760  25.2112

          k = 0.3333 0.1667 0.5000     band energies (ev):

     0.2723   8.7884  14.4428  17.1187  19.9233  22.6345

          k = 0.5000 0.0000 0.6667     band energies (ev):

     2.9233   7.9396   9.4207  14.2483  19.9426  24.4225

          k = 0.2500 0.2500 0.4167     band energies (ev):

    -0.5208   9.4396  16.9673  18.5429  18.9764  23.3912

          k = 0.8333-0.1667 1.0000     band energies (ev):

     3.1427   8.9865  10.9333  12.2986  16.4792  18.7335

          k = 0.5833 0.0833 0.7500     band energies (ev):

     4.7507   6.1045   9.2740  13.3004  18.9760  25.2112

          k = 0.7500-0.0833 0.9167     band energies (ev):

     4.6837   7.8077   8.9161  12.0193  17.3983  20.6929

          k = 0.5000 0.1667 0.6667     band energies (ev):

     3.1613   5.9931  11.7826  14.4728  20.1338  22.5824

          k = 0.6667 0.0000 0.8333     band energies (ev):

     6.1019   6.6212   7.5754  12.4695  18.0793  23.5134

          k = 0.4167 0.2500 0.5833     band energies (ev):

     1.9060   6.1877  14.5934  15.9645  20.1284  21.5344

          k =-0.1667-1.0000 0.0000     band energies (ev):

     5.1847   6.5177  10.7027  12.0708  16.2523  18.5215

          k =-0.4167-0.7500-0.2500     band energies (ev):

     3.8062   5.2512  12.3732  13.7629  19.3905  23.1875

          k = 0.6667-0.3333 1.0000     band energies (ev):

     1.7233   9.5506  10.9983  13.1825  20.5941  22.1673

          k = 0.4167-0.0833 0.7500     band energies (ev):

     3.3354   7.4929  10.6182  12.0170  21.3732  22.8091

          k = 0.5833-0.2500 0.9167     band energies (ev):

     3.3354   7.4929  10.6182  12.0170  21.3732  22.8091

          k = 0.3333 0.0000 0.6667     band energies (ev):

     1.7233   9.5506  10.9983  13.1825  20.5941  22.1673

          k = 0.5000-0.1667 0.8333     band energies (ev):

     5.1459   5.4109  10.8438  11.3956  21.7536  22.2820

          k = 0.2500 0.0833 0.5833     band energies (ev):

     0.4541  10.2619  13.3071  14.6946  18.7244  21.8575

          k = 0.6667-0.1667 1.0000     band energies (ev):

     3.8552   8.8603   9.5691  10.5134  19.9305  21.6756

          k = 0.4167 0.0833 0.7500     band energies (ev):

     3.3354   7.4929  10.6182  12.0170  21.3732  22.8091

          k = 0.5833-0.0833 0.9167     band energies (ev):

     5.6141   7.0187   8.7609  10.2941  20.9701  23.7858

          k = 0.3333 0.1667 0.6667     band energies (ev):

     1.9642   7.6242  13.1452  13.5684  18.9426  23.8145

          k = 0.5000 0.0000 0.8333     band energies (ev):

     5.0328   7.2501   8.6858  10.9413  21.7758  23.8083

          k = 0.2500 0.2500 0.5833     band energies (ev):

     0.9397   8.0471  15.0886  15.6868  17.4119  24.4777

          k =-0.3333-1.0000 0.0000     band energies (ev):

     5.8725   7.2193   8.6301  10.1851  19.7069  21.4933

          k =-0.5833-0.7500-0.2500     band energies (ev):

     3.8062   5.2512  12.3732  13.7629  19.3905  23.1875

          k =-0.5000-1.0000 0.0000     band energies (ev):

     7.0204   7.0204   8.0403   8.9402  23.5938  23.5938

          k =-0.7500-0.7500-0.2500     band energies (ev):

     2.8582   7.1111  11.4857  14.8339  16.5246  23.8242

          k = 0.0833-0.0833-0.0833     band energies (ev):

    -2.9877  17.7857  19.8225  19.8225  22.4809  22.6560

          k =-0.1667 0.1667-0.3333     band energies (ev):

    -1.6877  12.4354  17.2217  18.7409  20.5221  23.3954

          k = 0.0833-0.0833 0.0833     band energies (ev):

    -2.9877  17.7857  19.8225  19.8225  22.4809  22.6560

          k =-0.1667 0.1667-0.1667     band energies (ev):

    -2.4293  14.4469  19.1115  19.1115  22.3173  23.7322

          k =-0.0833-0.0833-0.0833     band energies (ev):

    -2.9877  17.7857  19.8225  19.8225  22.4809  22.6560

          k =-0.3333 0.1667-0.3333     band energies (ev):

    -0.9497  10.4027  15.9464  20.2501  20.6601  22.1985

          k = 0.1667-0.1667-0.1667     band energies (ev):

    -2.4293  14.4469  19.1115  19.1115  22.3173  23.7322

          k =-0.0833 0.0833-0.4167     band energies (ev):

    -1.5029  13.8509  16.1000  17.4236  18.2192  20.4184

          k = 0.1667-0.1667 0.1667     band energies (ev):

    -2.4293  14.4469  19.1115  19.1115  22.3173  23.7322

          k =-0.0833 0.0833-0.0833     band energies (ev):

    -2.9877  17.7857  19.8225  19.8225  22.4809  22.6560

          k =-0.1667-0.1667-0.1667     band energies (ev):

    -2.4293  14.4469  19.1115  19.1115  22.3173  23.7322

          k =-0.4167 0.0833-0.4167     band energies (ev):

    -0.0322   9.8100  12.9322  18.6858  20.6857  22.5727

          k = 0.2500-0.2500-0.2500     band energies (ev):

    -1.5029  11.2708  18.6673  18.6673  22.0995  22.5048

          k = 0.0000 0.0000-0.5000     band energies (ev):

    -0.9499  15.3022  15.3022  15.3050  16.0530  18.7431

          k = 0.2500-0.2500 0.2500     band energies (ev):

    -1.5029  11.2708  18.6673  18.6673  22.0995  22.5048

          k = 0.0000 0.0000 0.0000     band energies (ev):

    -3.1743  20.4239  20.4239  20.4239  21.7677  21.7677

          k =-0.2500-0.2500-0.2500     band energies (ev):

    -1.5029  11.2708  18.6673  18.6673  22.0995  22.5048

          k =-0.5000 0.0000-0.5000     band energies (ev):

     1.2428   9.0897  10.5860  17.2463  19.2128  24.7917

          k = 0.3333-0.3333-0.3333     band energies (ev):

    -0.2151   8.3517  18.5271  18.5271  21.1151  21.1151

          k = 0.0833-0.0833-0.5833     band energies (ev):

    -0.0330  12.4811  14.2007  14.8261  16.0881  19.2571

          k = 0.3333-0.3333 0.3333     band energies (ev):

    -0.2151   8.3517  18.5271  18.5271  21.1151  21.1151

          k = 0.0833-0.0833 0.0833     band energies (ev):

    -2.9877  17.7857  19.8225  19.8225  22.4809  22.6560

          k =-0.3333-0.3333-0.3333     band energies (ev):

    -0.2151   8.3517  18.5271  18.5271  21.1151  21.1151

          k =-0.5833-0.0833-0.5833     band energies (ev):

     2.8647   7.0310  10.2085  16.1218  17.9996  25.2164

          k = 0.4167-0.4167-0.4167     band energies (ev):

     1.4247   5.7263  18.6982  18.6982  20.0017  20.0017

          k = 0.1667-0.1667-0.6667     band energies (ev):

     1.2404   9.6791  12.6765  14.6701  16.2501  21.2710

          k = 0.4167-0.4167 0.4167     band energies (ev):

     1.4247   5.7263  18.6982  18.6982  20.0017  20.0017

          k = 0.1667-0.1667 0.1667     band energies (ev):

    -2.4293  14.4469  19.1115  19.1115  22.3173  23.7322

          k =-0.4167-0.4167-0.4167     band energies (ev):

     1.4247   5.7263  18.6982  18.6982  20.0017  20.0017

          k =-0.6667-0.1667-0.6667     band energies (ev):

     4.6869   4.9501  10.6472  15.3175  17.0989  25.6916

          k =-0.5000 0.5000 0.5000     band energies (ev):

     3.3024   3.5192  19.1168  19.1168  19.2668  19.2668

          k =-0.7500 0.7500 0.2500     band energies (ev):

     2.8582   7.1111  11.4857  14.8339  16.5246  23.8242

          k = 0.0000 0.0000 0.1667     band energies (ev):

    -2.9256  18.6682  18.6682  19.0013  21.2085  23.8955

          k =-0.2500 0.2500-0.0833     band energies (ev):

    -1.9963  13.4573  16.3456  20.7067  22.0087  23.2184

          k = 0.0833-0.0833-0.2500     band energies (ev):

    -2.4912  15.6436  17.7907  19.0839  21.5692  22.6018

          k =-0.1667 0.1667-0.5000     band energies (ev):

    -0.4599  10.8362  15.7339  16.4749  17.3818  22.2302

          k = 0.0833-0.0833 0.2500     band energies (ev):

    -2.4912  15.6436  17.7907  19.0839  21.5692  22.6018

          k =-0.1667 0.1667 0.0000     band energies (ev):

    -2.6772  16.4118  17.3362  20.9131  22.0359  23.0825

          k = 0.0833-0.2500-0.0833     band energies (ev):

    -2.4912  15.6436  17.7907  19.0839  21.5692  22.6018

          k =-0.1667 0.0000-0.3333     band energies (ev):

    -1.9345  14.3749  15.5244  19.7814  20.3306  21.5802

          k =-0.0833-0.2500-0.0833     band energies (ev):

    -2.4912  15.6436  17.7907  19.0839  21.5692  22.6018

          k =-0.3333 0.0000-0.3333     band energies (ev):

    -1.1953  12.3106  13.7022  20.1984  22.2298  22.3755

          k =-0.0833 0.2500 0.0833     band energies (ev):

    -2.4912  15.6436  17.7907  19.0839  21.5692  22.6018

          k =-0.3333 0.5000-0.1667     band energies (ev):

     0.2723   8.7884  14.4428  17.1187  19.9233  22.6345

          k = 0.1667-0.1667-0.3333     band energies (ev):

    -1.6877  12.4354  17.2217  18.7409  20.5221  23.3954

          k =-0.0833 0.0833-0.5833     band energies (ev):

    -0.0330  12.4811  14.2007  14.8261  16.0881  19.2571

          k = 0.1667-0.1667 0.3333     band energies (ev):

    -1.6877  12.4354  17.2217  18.7409  20.5221  23.3954

          k =-0.0833 0.0833 0.0833     band energies (ev):

    -2.9877  17.7857  19.8225  19.8225  22.4809  22.6560

          k = 0.1667-0.3333-0.1667     band energies (ev):

    -1.6877  12.4354  17.2217  18.7409  20.5221  23.3954

          k =-0.0833-0.0833-0.4167     band energies (ev):

    -1.5029  13.8509  16.1000  17.4236  18.2192  20.4184

          k =-0.1667-0.3333-0.1667     band energies (ev):

    -1.6877  12.4354  17.2217  18.7409  20.5221  23.3954

          k =-0.4167-0.0833-0.4167     band energies (ev):

    -0.0322   9.8100  12.9322  18.6858  20.6857  22.5727

          k =-0.1667 0.3333 0.1667     band energies (ev):

    -1.6877  12.4354  17.2217  18.7409  20.5221  23.3954

          k =-0.4167 0.5833-0.0833     band energies (ev):

     1.4236   8.4229  11.5766  15.5273  21.1565  22.2309

          k = 0.2500-0.2500-0.4167     band energies (ev):

    -0.5208   9.4396  16.9673  18.5429  18.9764  23.3912

          k = 0.0000 0.0000-0.6667     band energies (ev):

     0.7560  12.2041  14.0838  14.2412  14.2412  17.7134

          k = 0.2500-0.2500 0.4167     band energies (ev):

    -0.5208   9.4396  16.9673  18.5429  18.9764  23.3912

          k = 0.0000 0.0000 0.1667     band energies (ev):

    -2.9256  18.6682  18.6682  19.0013  21.2085  23.8955

          k = 0.2500-0.4167-0.2500     band energies (ev):

    -0.5208   9.4396  16.9673  18.5429  18.9764  23.3912

          k = 0.0000-0.1667-0.5000     band energies (ev):

    -0.7047  12.7736  14.0123  16.2976  18.2783  20.3277

          k =-0.2500-0.4167-0.2500     band energies (ev):

    -0.5208   9.4396  16.9673  18.5429  18.9764  23.3912

          k =-0.5000-0.1667-0.5000     band energies (ev):

     1.4845   7.1628  12.9212  17.4616  19.3928  22.6638

          k =-0.2500 0.4167 0.2500     band energies (ev):

    -0.5208   9.4396  16.9673  18.5429  18.9764  23.3912

          k =-0.5000 0.6667 0.0000     band energies (ev):

     2.9233   7.9396   9.4207  14.2483  19.9426  24.4225

          k = 0.3333-0.3333-0.5000     band energies (ev):

     1.0011   6.7206  17.0298  17.7153  18.6450  22.2012

          k = 0.0833-0.0833-0.7500     band energies (ev):

     1.8992  10.5275  11.5923  13.9770  15.1550  18.4274

          k = 0.3333-0.3333 0.5000     band energies (ev):

     1.0011   6.7206  17.0298  17.7153  18.6450  22.2012

          k = 0.0833-0.0833 0.2500     band energies (ev):

    -2.4912  15.6436  17.7907  19.0839  21.5692  22.6018

          k = 0.3333-0.5000-0.3333     band energies (ev):

     1.0011   6.7206  17.0298  17.7153  18.6450  22.2012

          k = 0.0833-0.2500-0.5833     band energies (ev):

     0.4541  10.2619  13.3071  14.6946  18.7244  21.8575

          k =-0.3333-0.5000-0.3333     band energies (ev):

     1.0011   6.7206  17.0298  17.7153  18.6450  22.2012

          k =-0.5833-0.2500-0.5833     band energies (ev):

     3.3382   4.7794  13.2979  16.5508  18.4053  23.0435

          k =-0.3333 0.5000 0.3333     band energies (ev):

     1.0011   6.7206  17.0298  17.7153  18.6450  22.2012

          k =-0.5833 0.7500 0.0833     band energies (ev):

     4.7507   6.1045   9.2740  13.3004  18.9760  25.2112

          k =-0.5833 0.5833 0.4167     band energies (ev):

     2.8627   4.3119  16.7806  17.4102  19.0602  21.3012

          k =-0.8333 0.8333 0.1667     band energies (ev):

     3.3805   8.8865   9.3495  14.0326  15.5475  20.6654

          k =-0.5833 0.5833-0.4167     band energies (ev):

     2.8627   4.3119  16.7806  17.4102  19.0602  21.3012

          k =-0.8333 0.8333-0.6667     band energies (ev):

    -1.6877  12.4354  17.2217  18.7409  20.5221  23.3954

          k =-0.5833 0.4167 0.5833     band energies (ev):

     2.8627   4.3119  16.7806  17.4102  19.0602  21.3012

          k =-0.8333 0.6667 0.3333     band energies (ev):

     1.9642   7.6242  13.1452  13.5684  18.9426  23.8145

          k = 0.5833 0.4167 0.5833     band energies (ev):

     2.8627   4.3119  16.7806  17.4102  19.0602  21.3012

          k = 0.3333 0.6667 0.3333     band energies (ev):

     2.6837   5.5457  14.0246  15.9590  17.7442  23.7298

          k = 0.5833-0.4167-0.5833     band energies (ev):

     2.8627   4.3119  16.7806  17.4102  19.0602  21.3012

          k = 0.3333-0.1667-0.8333     band energies (ev):

     4.0907   6.9195   9.9454  12.7001  18.2989  23.6785

          k =-0.5000 0.5000 0.3333     band energies (ev):

     2.2069   5.0768  16.1717  18.1080  19.8000  20.7123

          k =-0.7500 0.7500 0.0833     band energies (ev):

     5.1471   6.6293   8.3548  14.4080  16.0621  23.4584

          k =-0.5000 0.5000-0.3333     band energies (ev):

     2.2069   5.0768  16.1717  18.1080  19.8000  20.7123

          k =-0.7500 0.7500-0.5833     band energies (ev):

    -0.5208   9.4396  16.9673  18.5429  18.9764  23.3912

          k =-0.5000 0.3333 0.5000     band energies (ev):

     2.2069   5.0768  16.1717  18.1080  19.8000  20.7123

          k =-0.7500 0.5833 0.2500     band energies (ev):

     3.8062   5.2512  12.3732  13.7629  19.3905  23.1875

          k = 0.5000 0.3333 0.5000     band energies (ev):

     2.2069   5.0768  16.1717  18.1080  19.8000  20.7123

          k = 0.2500 0.5833 0.2500     band energies (ev):

     0.9397   8.0471  15.0886  15.6868  17.4119  24.4777

          k = 0.5000-0.3333-0.5000     band energies (ev):

     2.2069   5.0768  16.1717  18.1080  19.8000  20.7123

          k = 0.2500-0.0833-0.7500     band energies (ev):

     2.3796   9.3282  11.0003  12.4914  17.8462  21.0935

          k =-0.4167 0.4167 0.2500     band energies (ev):

     0.4551   7.5920  15.8927  19.1138  20.4457  20.8549

          k =-0.6667 0.6667 0.0000     band energies (ev):

     4.5813   6.7906   8.2498  15.1040  16.8747  26.4260

          k =-0.4167 0.4167-0.2500     band energies (ev):

     0.4551   7.5920  15.8927  19.1138  20.4457  20.8549

          k =-0.6667 0.6667-0.5000     band energies (ev):

     1.0011   6.7206  17.0298  17.7153  18.6450  22.2012

          k =-0.4167 0.2500 0.4167     band energies (ev):

     0.4551   7.5920  15.8927  19.1138  20.4457  20.8549

          k =-0.6667 0.5000 0.1667     band energies (ev):

     3.1613   5.9931  11.7826  14.4728  20.1338  22.5824

          k = 0.4167 0.2500 0.4167     band energies (ev):

     0.4551   7.5920  15.8927  19.1138  20.4457  20.8549

          k = 0.1667 0.5000 0.1667     band energies (ev):

    -0.4599  10.8362  15.7339  16.4749  17.3818  22.2302

          k = 0.4167-0.2500-0.4167     band energies (ev):

     0.4551   7.5920  15.8927  19.1138  20.4457  20.8549

          k = 0.1667 0.0000-0.6667     band energies (ev):

     0.9984  11.6244  12.3430  13.0417  17.1582  19.3536

          k =-0.3333 0.3333 0.1667     band energies (ev):

    -0.9497  10.4027  15.9464  20.2501  20.6601  22.1985

          k =-0.5833 0.5833-0.0833     band energies (ev):

     2.8647   7.0310  10.2085  16.1218  17.9996  25.2164

          k =-0.3333 0.3333-0.1667     band energies (ev):

    -0.9497  10.4027  15.9464  20.2501  20.6601  22.1985

          k =-0.5833 0.5833-0.4167     band energies (ev):

     2.8627   4.3119  16.7806  17.4102  19.0602  21.3012

          k =-0.3333 0.1667 0.3333     band energies (ev):

    -0.9497  10.4027  15.9464  20.2501  20.6601  22.1985

          k =-0.5833 0.4167 0.0833     band energies (ev):

     1.4236   8.4229  11.5766  15.5273  21.1565  22.2309

          k = 0.3333 0.1667 0.3333     band energies (ev):

    -0.9497  10.4027  15.9464  20.2501  20.6601  22.1985

          k = 0.0833 0.4167 0.0833     band energies (ev):

    -1.5029  13.8509  16.1000  17.4236  18.2192  20.4184

          k = 0.3333-0.1667-0.3333     band energies (ev):

    -0.9497  10.4027  15.9464  20.2501  20.6601  22.1985

          k = 0.0833 0.0833-0.5833     band energies (ev):

    -0.0330  12.4811  14.2007  14.8261  16.0881  19.2571

          k =-0.2500 0.2500 0.0833     band energies (ev):

    -1.9963  13.4573  16.3456  20.7067  22.0087  23.2184

          k =-0.5000 0.5000-0.1667     band energies (ev):

     1.4845   7.1628  12.9212  17.4616  19.3928  22.6638

          k =-0.2500 0.2500-0.0833     band energies (ev):

    -1.9963  13.4573  16.3456  20.7067  22.0087  23.2184

          k =-0.5000 0.5000-0.3333     band energies (ev):

     2.2069   5.0768  16.1717  18.1080  19.8000  20.7123

          k =-0.2500 0.0833 0.2500     band energies (ev):

    -1.9963  13.4573  16.3456  20.7067  22.0087  23.2184

          k =-0.5000 0.3333 0.0000     band energies (ev):

     0.0286  10.7011  12.1584  16.9079  21.6490  22.3281

          k = 0.2500 0.0833 0.2500     band energies (ev):

    -1.9963  13.4573  16.3456  20.7067  22.0087  23.2184

          k = 0.0000 0.3333 0.0000     band energies (ev):

    -2.1817  16.7856  16.7856  16.9827  19.9699  20.2737

          k = 0.2500-0.0833-0.2500     band energies (ev):

    -1.9963  13.4573  16.3456  20.7067  22.0087  23.2184

          k = 0.0000 0.1667-0.5000     band energies (ev):

    -0.7047  12.7736  14.0123  16.2976  18.2783  20.3277

          k =-0.1667 0.1667 0.0000     band energies (ev):

    -2.6772  16.4118  17.3362  20.9131  22.0359  23.0825

          k =-0.4167 0.4167-0.2500     band energies (ev):

     0.4551   7.5920  15.8927  19.1138  20.4457  20.8549

          k =-0.1667 0.0000 0.1667     band energies (ev):

    -2.6772  16.4118  17.3362  20.9131  22.0359  23.0825

          k =-0.4167 0.2500-0.0833     band energies (ev):

    -1.0111  11.6411  14.6515  18.5935  19.9547  22.8602

          k = 0.0000 0.0000 0.3333     band energies (ev):

    -2.1817  16.7856  16.7856  16.9827  19.9699  20.2737

          k =-0.2500 0.2500 0.0833     band energies (ev):

    -1.9963  13.4573  16.3456  20.7067  22.0087  23.2184

          k = 0.0833-0.0833-0.4167     band energies (ev):

    -1.5029  13.8509  16.1000  17.4236  18.2192  20.4184

          k =-0.1667 0.1667-0.6667     band energies (ev):

     1.2404   9.6791  12.6765  14.6701  16.2501  21.2710

          k = 0.0833-0.0833 0.4167     band energies (ev):

    -1.5029  13.8509  16.1000  17.4236  18.2192  20.4184

          k =-0.1667 0.1667 0.1667     band energies (ev):

    -2.4293  14.4469  19.1115  19.1115  22.3173  23.7322

          k = 0.0833-0.4167-0.0833     band energies (ev):

    -1.5029  13.8509  16.1000  17.4236  18.2192  20.4184

          k =-0.1667-0.1667-0.3333     band energies (ev):

    -1.6877  12.4354  17.2217  18.7409  20.5221  23.3954

          k =-0.0833-0.4167-0.0833     band energies (ev):

    -1.5029  13.8509  16.1000  17.4236  18.2192  20.4184

          k =-0.3333-0.1667-0.3333     band energies (ev):

    -0.9497  10.4027  15.9464  20.2501  20.6601  22.1985

          k =-0.0833 0.4167 0.0833     band energies (ev):

    -1.5029  13.8509  16.1000  17.4236  18.2192  20.4184

          k =-0.3333 0.6667-0.1667     band energies (ev):

     1.9642   7.6242  13.1452  13.5684  18.9426  23.8145

          k = 0.1667-0.1667-0.5000     band energies (ev):

    -0.4599  10.8362  15.7339  16.4749  17.3818  22.2302

          k =-0.0833 0.0833-0.7500     band energies (ev):

     1.8992  10.5275  11.5923  13.9770  15.1550  18.4274

          k = 0.1667-0.1667 0.5000     band energies (ev):

    -0.4599  10.8362  15.7339  16.4749  17.3818  22.2302

          k =-0.0833 0.0833 0.2500     band energies (ev):

    -2.4912  15.6436  17.7907  19.0839  21.5692  22.6018

          k = 0.1667-0.5000-0.1667     band energies (ev):

    -0.4599  10.8362  15.7339  16.4749  17.3818  22.2302

          k =-0.0833-0.2500-0.4167     band energies (ev):

    -1.0111  11.6411  14.6515  18.5935  19.9547  22.8602

          k =-0.1667-0.5000-0.1667     band energies (ev):

    -0.4599  10.8362  15.7339  16.4749  17.3818  22.2302

          k =-0.4167-0.2500-0.4167     band energies (ev):

     0.4551   7.5920  15.8927  19.1138  20.4457  20.8549

          k =-0.1667 0.5000 0.1667     band energies (ev):

    -0.4599  10.8362  15.7339  16.4749  17.3818  22.2302

          k =-0.4167 0.7500-0.0833     band energies (ev):

     3.3354   7.4929  10.6182  12.0170  21.3732  22.8091

          k = 0.2500-0.2500-0.5833     band energies (ev):

     0.9397   8.0471  15.0886  15.6868  17.4119  24.4777

          k = 0.0000 0.0000-0.8333     band energies (ev):

     2.9044   8.7613  13.3456  13.6051  13.6051  17.0546

          k = 0.2500-0.2500 0.5833     band energies (ev):

     0.9397   8.0471  15.0886  15.6868  17.4119  24.4777

          k = 0.0000 0.0000 0.3333     band energies (ev):

    -2.1817  16.7856  16.7856  16.9827  19.9699  20.2737

          k = 0.2500-0.5833-0.2500     band energies (ev):

     0.9397   8.0471  15.0886  15.6868  17.4119  24.4777

          k = 0.0000-0.3333-0.5000     band energies (ev):

     0.0286  10.7011  12.1584  16.9079  21.6490  22.3281

          k =-0.2500-0.5833-0.2500     band energies (ev):

     0.9397   8.0471  15.0886  15.6868  17.4119  24.4777

          k =-0.5000-0.3333-0.5000     band energies (ev):

     2.2069   5.0768  16.1717  18.1080  19.8000  20.7123

          k =-0.2500 0.5833 0.2500     band energies (ev):

     0.9397   8.0471  15.0886  15.6868  17.4119  24.4777

          k =-0.5000 0.8333 0.0000     band energies (ev):

     5.0328   7.2501   8.6858  10.9413  21.7758  23.8083

          k =-0.6667 0.6667 0.3333     band energies (ev):

     2.6837   5.5457  14.0246  15.9590  17.7442  23.7298

          k =-0.9167 0.9167 0.0833     band energies (ev):

     4.2149   7.3605  11.1214  13.5530  14.6844  17.9971

          k =-0.6667 0.6667-0.3333     band energies (ev):

     2.6837   5.5457  14.0246  15.9590  17.7442  23.7298

          k =-0.9167 0.9167-0.5833     band energies (ev):

    -1.5029  13.8509  16.1000  17.4236  18.2192  20.4184

          k =-0.6667 0.3333 0.6667     band energies (ev):

     2.6837   5.5457  14.0246  15.9590  17.7442  23.7298

          k =-0.9167 0.5833 0.4167     band energies (ev):

     1.4236   8.4229  11.5766  15.5273  21.1565  22.2309

          k = 0.6667 0.3333 0.6667     band energies (ev):

     2.6837   5.5457  14.0246  15.9590  17.7442  23.7298

          k = 0.4167 0.5833 0.4167     band energies (ev):

     2.8627   4.3119  16.7806  17.4102  19.0602  21.3012

          k = 0.6667-0.3333-0.6667     band energies (ev):

     2.6837   5.5457  14.0246  15.9590  17.7442  23.7298

          k = 0.4167-0.0833-0.9167     band energies (ev):

     5.6141   7.0187   8.7609  10.2941  20.9701  23.7858

          k =-0.5833 0.5833 0.2500     band energies (ev):

     3.3382   4.7794  13.2979  16.5508  18.4053  23.0435

          k =-0.8333 0.8333 0.0000     band energies (ev):

     5.4139   6.7477   8.7924  13.8203  15.3100  20.4591

          k =-0.5833 0.5833-0.2500     band energies (ev):

     3.3382   4.7794  13.2979  16.5508  18.4053  23.0435

          k =-0.8333 0.8333-0.5000     band energies (ev):

    -0.4599  10.8362  15.7339  16.4749  17.3818  22.2302

          k =-0.5833 0.2500 0.5833     band energies (ev):

     3.3382   4.7794  13.2979  16.5508  18.4053  23.0435

          k =-0.8333 0.5000 0.3333     band energies (ev):

     3.1613   5.9931  11.7826  14.4728  20.1338  22.5824

          k = 0.5833 0.2500 0.5833     band energies (ev):

     3.3382   4.7794  13.2979  16.5508  18.4053  23.0435

          k = 0.3333 0.5000 0.3333     band energies (ev):

     1.0011   6.7206  17.0298  17.7153  18.6450  22.2012

          k = 0.5833-0.2500-0.5833     band energies (ev):

     3.3382   4.7794  13.2979  16.5508  18.4053  23.0435

          k = 0.3333 0.0000-0.8333     band energies (ev):

     3.8552   8.8603   9.5691  10.5134  19.9305  21.6756

          k =-0.5000 0.5000 0.1667     band energies (ev):

     1.4845   7.1628  12.9212  17.4616  19.3928  22.6638

          k =-0.7500 0.7500-0.0833     band energies (ev):

     5.1471   6.6293   8.3548  14.4080  16.0621  23.4584

          k =-0.5000 0.5000-0.1667     band energies (ev):

     1.4845   7.1628  12.9212  17.4616  19.3928  22.6638

          k =-0.7500 0.7500-0.4167     band energies (ev):

     0.9397   8.0471  15.0886  15.6868  17.4119  24.4777

          k =-0.5000 0.1667 0.5000     band energies (ev):

     1.4845   7.1628  12.9212  17.4616  19.3928  22.6638

          k =-0.7500 0.4167 0.2500     band energies (ev):

     3.8062   5.2512  12.3732  13.7629  19.3905  23.1875

          k = 0.5000 0.1667 0.5000     band energies (ev):

     1.4845   7.1628  12.9212  17.4616  19.3928  22.6638

          k = 0.2500 0.4167 0.2500     band energies (ev):

    -0.5208   9.4396  16.9673  18.5429  18.9764  23.3912

          k = 0.5000-0.1667-0.5000     band energies (ev):

     1.4845   7.1628  12.9212  17.4616  19.3928  22.6638

          k = 0.2500 0.0833-0.7500     band energies (ev):

     2.3796   9.3282  11.0003  12.4914  17.8462  21.0935

          k =-0.4167 0.4167 0.0833     band energies (ev):

    -0.0322   9.8100  12.9322  18.6858  20.6857  22.5727

          k =-0.6667 0.6667-0.1667     band energies (ev):

     4.6869   4.9501  10.6472  15.3175  17.0989  25.6916

          k =-0.4167 0.4167-0.0833     band energies (ev):

    -0.0322   9.8100  12.9322  18.6858  20.6857  22.5727

          k =-0.6667 0.6667-0.3333     band energies (ev):

     2.6837   5.5457  14.0246  15.9590  17.7442  23.7298

          k =-0.4167 0.0833 0.4167     band energies (ev):

    -0.0322   9.8100  12.9322  18.6858  20.6857  22.5727

          k =-0.6667 0.3333 0.1667     band energies (ev):

     1.9642   7.6242  13.1452  13.5684  18.9426  23.8145

          k = 0.4167 0.0833 0.4167     band energies (ev):

    -0.0322   9.8100  12.9322  18.6858  20.6857  22.5727

          k = 0.1667 0.3333 0.1667     band energies (ev):

    -1.6877  12.4354  17.2217  18.7409  20.5221  23.3954

          k = 0.4167-0.0833-0.4167     band energies (ev):

    -0.0322   9.8100  12.9322  18.6858  20.6857  22.5727

          k = 0.1667 0.1667-0.6667     band energies (ev):

     1.2404   9.6791  12.6765  14.6701  16.2501  21.2710

          k =-0.3333 0.3333 0.0000     band energies (ev):

    -1.1953  12.3106  13.7022  20.1984  22.2298  22.3755

          k =-0.5833 0.5833-0.2500     band energies (ev):

     3.3382   4.7794  13.2979  16.5508  18.4053  23.0435

          k =-0.3333 0.0000 0.3333     band energies (ev):

    -1.1953  12.3106  13.7022  20.1984  22.2298  22.3755

          k =-0.5833 0.2500 0.0833     band energies (ev):

     0.4541  10.2619  13.3071  14.6946  18.7244  21.8575

          k = 0.0000 0.0000 0.5000     band energies (ev):

    -0.9499  15.3022  15.3022  15.3050  16.0530  18.7431

          k =-0.2500 0.2500 0.2500     band energies (ev):

    -1.5029  11.2708  18.6673  18.6673  22.0995  22.5048

          k = 0.0833-0.0833-0.5833     band energies (ev):

    -0.0330  12.4811  14.2007  14.8261  16.0881  19.2571

          k =-0.1667 0.1667-0.8333     band energies (ev):

     3.3805   8.8865   9.3495  14.0326  15.5475  20.6654

          k = 0.0833-0.0833 0.5833     band energies (ev):

    -0.0330  12.4811  14.2007  14.8261  16.0881  19.2571

          k =-0.1667 0.1667 0.3333     band energies (ev):

    -1.6877  12.4354  17.2217  18.7409  20.5221  23.3954

          k = 0.0833-0.5833-0.0833     band energies (ev):

    -0.0330  12.4811  14.2007  14.8261  16.0881  19.2571

          k =-0.1667-0.3333-0.3333     band energies (ev):

    -0.9497  10.4027  15.9464  20.2501  20.6601  22.1985

          k =-0.0833-0.5833-0.0833     band energies (ev):

    -0.0330  12.4811  14.2007  14.8261  16.0881  19.2571

          k =-0.3333-0.3333-0.3333     band energies (ev):

    -0.2151   8.3517  18.5271  18.5271  21.1151  21.1151

          k =-0.0833 0.5833 0.0833     band energies (ev):

    -0.0330  12.4811  14.2007  14.8261  16.0881  19.2571

          k =-0.3333 0.8333-0.1667     band energies (ev):

     4.0907   6.9195   9.9454  12.7001  18.2989  23.6785

          k = 0.1667-0.1667-0.6667     band energies (ev):

     1.2404   9.6791  12.6765  14.6701  16.2501  21.2710

          k =-0.0833 0.0833-0.9167     band energies (ev):

     4.2149   7.3605  11.1214  13.5530  14.6844  17.9971

          k = 0.1667-0.1667 0.6667     band energies (ev):

     1.2404   9.6791  12.6765  14.6701  16.2501  21.2710

          k =-0.0833 0.0833 0.4167     band energies (ev):

    -1.5029  13.8509  16.1000  17.4236  18.2192  20.4184

          k = 0.1667-0.6667-0.1667     band energies (ev):

     1.2404   9.6791  12.6765  14.6701  16.2501  21.2710

          k =-0.0833-0.4167-0.4167     band energies (ev):

    -0.0322   9.8100  12.9322  18.6858  20.6857  22.5727

          k =-0.1667-0.6667-0.1667     band energies (ev):

     1.2404   9.6791  12.6765  14.6701  16.2501  21.2710

          k =-0.4167-0.4167-0.4167     band energies (ev):

     1.4247   5.7263  18.6982  18.6982  20.0017  20.0017

          k =-0.1667 0.6667 0.1667     band energies (ev):

     1.2404   9.6791  12.6765  14.6701  16.2501  21.2710

          k =-0.4167 0.9167-0.0833     band energies (ev):

     5.6141   7.0187   8.7609  10.2941  20.9701  23.7858

          k =-0.7500 0.7500 0.2500     band energies (ev):

     2.8582   7.1111  11.4857  14.8339  16.5246  23.8242

          k =-1.0000 1.0000 0.0000     band energies (ev):

     4.9556   6.2776  13.0989  13.3933  13.3933  16.8288

          k =-0.7500 0.7500-0.2500     band energies (ev):

     2.8582   7.1111  11.4857  14.8339  16.5246  23.8242

          k =-1.0000 1.0000-0.5000     band energies (ev):

    -0.9499  15.3022  15.3022  15.3050  16.0530  18.7431

          k =-0.7500 0.2500 0.7500     band energies (ev):

     2.8582   7.1111  11.4857  14.8339  16.5246  23.8242

          k =-1.0000 0.5000 0.5000     band energies (ev):

     1.2428   9.0897  10.5860  17.2463  19.2128  24.7917

          k = 0.7500 0.2500 0.7500     band energies (ev):

     2.8582   7.1111  11.4857  14.8339  16.5246  23.8242

          k = 0.5000 0.5000 0.5000     band energies (ev):

     3.3024   3.5192  19.1168  19.1168  19.2668  19.2668

          k = 0.7500-0.2500-0.7500     band energies (ev):

     2.8582   7.1111  11.4857  14.8339  16.5246  23.8242

          k = 0.5000 0.0000-1.0000     band energies (ev):

     7.0204   7.0204   8.0403   8.9402  23.5938  23.5938

          k =-0.6667 0.6667 0.1667     band energies (ev):

     4.6869   4.9501  10.6472  15.3175  17.0989  25.6916

          k =-0.9167 0.9167-0.0833     band energies (ev):

     4.2149   7.3605  11.1214  13.5530  14.6844  17.9971

          k =-0.6667 0.6667-0.1667     band energies (ev):

     4.6869   4.9501  10.6472  15.3175  17.0989  25.6916

          k =-0.9167 0.9167-0.4167     band energies (ev):

    -0.0330  12.4811  14.2007  14.8261  16.0881  19.2571

          k =-0.6667 0.1667 0.6667     band energies (ev):

     4.6869   4.9501  10.6472  15.3175  17.0989  25.6916

          k =-0.9167 0.4167 0.4167     band energies (ev):

     2.8647   7.0310  10.2085  16.1218  17.9996  25.2164

          k = 0.6667 0.1667 0.6667     band energies (ev):

     4.6869   4.9501  10.6472  15.3175  17.0989  25.6916

          k = 0.4167 0.4167 0.4167     band energies (ev):

     1.4247   5.7263  18.6982  18.6982  20.0017  20.0017

          k = 0.6667-0.1667-0.6667     band energies (ev):

     4.6869   4.9501  10.6472  15.3175  17.0989  25.6916

          k = 0.4167 0.0833-0.9167     band energies (ev):

     5.6141   7.0187   8.7609  10.2941  20.9701  23.7858

          k =-0.5833 0.5833 0.0833     band energies (ev):

     2.8647   7.0310  10.2085  16.1218  17.9996  25.2164

          k =-0.8333 0.8333-0.1667     band energies (ev):

     3.3805   8.8865   9.3495  14.0326  15.5475  20.6654

          k =-0.5833 0.5833-0.0833     band energies (ev):

     2.8647   7.0310  10.2085  16.1218  17.9996  25.2164

          k =-0.8333 0.8333-0.3333     band energies (ev):

     1.2404   9.6791  12.6765  14.6701  16.2501  21.2710

          k =-0.5833 0.0833 0.5833     band energies (ev):

     2.8647   7.0310  10.2085  16.1218  17.9996  25.2164

          k =-0.8333 0.3333 0.3333     band energies (ev):

     4.6869   4.9501  10.6472  15.3175  17.0989  25.6916

          k = 0.5833 0.0833 0.5833     band energies (ev):

     2.8647   7.0310  10.2085  16.1218  17.9996  25.2164

          k = 0.3333 0.3333 0.3333     band energies (ev):

    -0.2151   8.3517  18.5271  18.5271  21.1151  21.1151

          k = 0.5833-0.0833-0.5833     band energies (ev):

     2.8647   7.0310  10.2085  16.1218  17.9996  25.2164

          k = 0.3333 0.1667-0.8333     band energies (ev):

     4.0907   6.9195   9.9454  12.7001  18.2989  23.6785

          k =-0.5000 0.5000 0.0000     band energies (ev):

     1.2428   9.0897  10.5860  17.2463  19.2128  24.7917

          k =-0.7500 0.7500-0.2500     band energies (ev):

     2.8582   7.1111  11.4857  14.8339  16.5246  23.8242

          k =-0.5000 0.0000 0.5000     band energies (ev):

     1.2428   9.0897  10.5860  17.2463  19.2128  24.7917

          k =-0.7500 0.2500 0.2500     band energies (ev):

     2.8582   7.1111  11.4857  14.8339  16.5246  23.8242

          k = 0.0000 0.0000 0.6667     band energies (ev):

     0.7560  12.2041  14.0838  14.2412  14.2412  17.7134

          k =-0.2500 0.2500 0.4167     band energies (ev):

    -0.5208   9.4396  16.9673  18.5429  18.9764  23.3912

          k = 0.0833-0.0833-0.7500     band energies (ev):

     1.8992  10.5275  11.5923  13.9770  15.1550  18.4274

          k =-0.1667 0.1667-1.0000     band energies (ev):

     5.4139   6.7477   8.7924  13.8203  15.3100  20.4591

          k = 0.0833-0.0833 0.7500     band energies (ev):

     1.8992  10.5275  11.5923  13.9770  15.1550  18.4274

          k =-0.1667 0.1667 0.5000     band energies (ev):

    -0.4599  10.8362  15.7339  16.4749  17.3818  22.2302

          k = 0.0833-0.7500-0.0833     band energies (ev):

     1.8992  10.5275  11.5923  13.9770  15.1550  18.4274

          k =-0.1667-0.5000-0.3333     band energies (ev):

     0.2723   8.7884  14.4428  17.1187  19.9233  22.6345

          k =-0.0833-0.7500-0.0833     band energies (ev):

     1.8992  10.5275  11.5923  13.9770  15.1550  18.4274

          k =-0.3333-0.5000-0.3333     band energies (ev):

     1.0011   6.7206  17.0298  17.7153  18.6450  22.2012

          k =-0.0833 0.7500 0.0833     band energies (ev):

     1.8992  10.5275  11.5923  13.9770  15.1550  18.4274

          k =-0.3333 1.0000-0.1667     band energies (ev):

     6.1019   6.6212   7.5754  12.4695  18.0793  23.5134

          k =-0.8333 0.8333 0.1667     band energies (ev):

     3.3805   8.8865   9.3495  14.0326  15.5475  20.6654

          k =-1.0833 1.0833-0.0833     band energies (ev):

     4.2149   7.3605  11.1214  13.5530  14.6844  17.9971

          k =-0.8333 0.8333-0.1667     band energies (ev):

     3.3805   8.8865   9.3495  14.0326  15.5475  20.6654

          k =-1.0833 1.0833-0.4167     band energies (ev):

    -0.0330  12.4811  14.2007  14.8261  16.0881  19.2571

          k =-0.8333 0.1667 0.8333     band energies (ev):

     3.3805   8.8865   9.3495  14.0326  15.5475  20.6654

          k =-1.0833 0.4167 0.5833     band energies (ev):

     1.4236   8.4229  11.5766  15.5273  21.1565  22.2309

          k = 0.8333 0.1667 0.8333     band energies (ev):

     3.3805   8.8865   9.3495  14.0326  15.5475  20.6654

          k = 0.5833 0.4167 0.5833     band energies (ev):

     2.8627   4.3119  16.7806  17.4102  19.0602  21.3012

          k = 0.8333-0.1667-0.8333     band energies (ev):

     3.3805   8.8865   9.3495  14.0326  15.5475  20.6654

          k = 0.5833 0.0833-1.0833     band energies (ev):

     5.6141   7.0187   8.7609  10.2941  20.9701  23.7858

          k =-0.7500 0.7500 0.0833     band energies (ev):

     5.1471   6.6293   8.3548  14.4080  16.0621  23.4584

          k =-1.0000 1.0000-0.1667     band energies (ev):

     2.9044   8.7613  13.3456  13.6051  13.6051  17.0546

          k =-0.7500 0.7500-0.0833     band energies (ev):

     5.1471   6.6293   8.3548  14.4080  16.0621  23.4584

          k =-1.0000 1.0000-0.3333     band energies (ev):

     0.7560  12.2041  14.0838  14.2412  14.2412  17.7134

          k =-0.7500 0.0833 0.7500     band energies (ev):

     5.1471   6.6293   8.3548  14.4080  16.0621  23.4584

          k =-1.0000 0.3333 0.5000     band energies (ev):

     2.9233   7.9396   9.4207  14.2483  19.9426  24.4225

          k = 0.7500 0.0833 0.7500     band energies (ev):

     5.1471   6.6293   8.3548  14.4080  16.0621  23.4584

          k = 0.5000 0.3333 0.5000     band energies (ev):

     2.2069   5.0768  16.1717  18.1080  19.8000  20.7123

          k = 0.7500-0.0833-0.7500     band energies (ev):

     5.1471   6.6293   8.3548  14.4080  16.0621  23.4584

          k = 0.5000 0.1667-1.0000     band energies (ev):

     5.0328   7.2501   8.6858  10.9413  21.7758  23.8083

          k =-0.6667 0.6667 0.0000     band energies (ev):

     4.5813   6.7906   8.2498  15.1040  16.8747  26.4260

          k =-0.9167 0.9167-0.2500     band energies (ev):

     1.8992  10.5275  11.5923  13.9770  15.1550  18.4274

          k =-0.6667 0.0000 0.6667     band energies (ev):

     4.5813   6.7906   8.2498  15.1040  16.8747  26.4260

          k =-0.9167 0.2500 0.4167     band energies (ev):

     4.7507   6.1045   9.2740  13.3004  18.9760  25.2112

          k = 0.0000 0.0000 0.8333     band energies (ev):

     2.9044   8.7613  13.3456  13.6051  13.6051  17.0546

          k =-0.2500 0.2500 0.5833     band energies (ev):

     0.9397   8.0471  15.0886  15.6868  17.4119  24.4777

          k =-0.9167 0.9167 0.0833     band energies (ev):

     4.2149   7.3605  11.1214  13.5530  14.6844  17.9971

          k =-1.1667 1.1667-0.1667     band energies (ev):

     3.3805   8.8865   9.3495  14.0326  15.5475  20.6654

          k =-0.9167 0.9167-0.0833     band energies (ev):

     4.2149   7.3605  11.1214  13.5530  14.6844  17.9971

          k =-1.1667 1.1667-0.3333     band energies (ev):

     1.2404   9.6791  12.6765  14.6701  16.2501  21.2710

          k =-0.9167 0.0833 0.9167     band energies (ev):

     4.2149   7.3605  11.1214  13.5530  14.6844  17.9971

          k =-1.1667 0.3333 0.6667     band energies (ev):

     1.9642   7.6242  13.1452  13.5684  18.9426  23.8145

          k = 0.9167 0.0833 0.9167     band energies (ev):

     4.2149   7.3605  11.1214  13.5530  14.6844  17.9971

          k = 0.6667 0.3333 0.6667     band energies (ev):

     2.6837   5.5457  14.0246  15.9590  17.7442  23.7298

          k = 0.9167-0.0833-0.9167     band energies (ev):

     4.2149   7.3605  11.1214  13.5530  14.6844  17.9971

          k = 0.6667 0.1667-1.1667     band energies (ev):

     4.0907   6.9195   9.9454  12.7001  18.2989  23.6785

          k =-0.8333 0.8333 0.0000     band energies (ev):

     5.4139   6.7477   8.7924  13.8203  15.3100  20.4591

          k =-1.0833 1.0833-0.2500     band energies (ev):

     1.8992  10.5275  11.5923  13.9770  15.1550  18.4274

          k =-0.8333 0.0000 0.8333     band energies (ev):

     5.4139   6.7477   8.7924  13.8203  15.3100  20.4591

          k =-1.0833 0.2500 0.5833     band energies (ev):

     3.3354   7.4929  10.6182  12.0170  21.3732  22.8091

          k = 0.1667 0.0000-0.3333     band energies (ev):

    -1.9345  14.3749  15.5244  19.7814  20.3306  21.5802

          k =-0.0833 0.2500-0.5833     band energies (ev):

     0.4541  10.2619  13.3071  14.6946  18.7244  21.8575

          k = 0.1667 0.0000 0.3333     band energies (ev):

    -1.9345  14.3749  15.5244  19.7814  20.3306  21.5802

          k =-0.0833 0.2500 0.0833     band energies (ev):

    -2.4912  15.6436  17.7907  19.0839  21.5692  22.6018

          k = 0.0000-0.3333-0.1667     band energies (ev):

    -1.9345  14.3749  15.5244  19.7814  20.3306  21.5802

          k =-0.2500-0.0833-0.4167     band energies (ev):

    -1.0111  11.6411  14.6515  18.5935  19.9547  22.8602

          k = 0.2500-0.0833-0.4167     band energies (ev):

    -1.0111  11.6411  14.6515  18.5935  19.9547  22.8602

          k = 0.0000 0.1667-0.6667     band energies (ev):

     0.9984  11.6244  12.3430  13.0417  17.1582  19.3536

          k = 0.2500-0.0833 0.4167     band energies (ev):

    -1.0111  11.6411  14.6515  18.5935  19.9547  22.8602

          k = 0.0000 0.1667 0.1667     band energies (ev):

    -2.6772  16.4118  17.3362  20.9131  22.0359  23.0825

          k = 0.2500-0.4167-0.0833     band energies (ev):

    -1.0111  11.6411  14.6515  18.5935  19.9547  22.8602

          k = 0.0000-0.1667-0.3333     band energies (ev):

    -1.9345  14.3749  15.5244  19.7814  20.3306  21.5802

          k =-0.0833-0.4167-0.2500     band energies (ev):

    -1.0111  11.6411  14.6515  18.5935  19.9547  22.8602

          k =-0.3333-0.1667-0.5000     band energies (ev):

     0.2723   8.7884  14.4428  17.1187  19.9233  22.6345

          k = 0.0833-0.4167-0.2500     band energies (ev):

    -1.0111  11.6411  14.6515  18.5935  19.9547  22.8602

          k =-0.1667-0.1667-0.5000     band energies (ev):

    -0.4599  10.8362  15.7339  16.4749  17.3818  22.2302

          k =-0.2500 0.4167 0.0833     band energies (ev):

    -1.0111  11.6411  14.6515  18.5935  19.9547  22.8602

          k =-0.5000 0.6667-0.1667     band energies (ev):

     3.1613   5.9931  11.7826  14.4728  20.1338  22.5824

          k = 0.2500 0.0833-0.4167     band energies (ev):

    -1.0111  11.6411  14.6515  18.5935  19.9547  22.8602

          k = 0.0000 0.3333-0.6667     band energies (ev):

     1.7233   9.5506  10.9983  13.1825  20.5941  22.1673

          k = 0.3333-0.1667-0.5000     band energies (ev):

     0.2723   8.7884  14.4428  17.1187  19.9233  22.6345

          k = 0.0833 0.0833-0.7500     band energies (ev):

     1.8992  10.5275  11.5923  13.9770  15.1550  18.4274

          k = 0.3333-0.1667 0.5000     band energies (ev):

     0.2723   8.7884  14.4428  17.1187  19.9233  22.6345

          k = 0.0833 0.0833 0.2500     band energies (ev):

    -2.4912  15.6436  17.7907  19.0839  21.5692  22.6018

          k = 0.3333-0.5000-0.1667     band energies (ev):

     0.2723   8.7884  14.4428  17.1187  19.9233  22.6345

          k = 0.0833-0.2500-0.4167     band energies (ev):

    -1.0111  11.6411  14.6515  18.5935  19.9547  22.8602

          k =-0.1667-0.5000-0.3333     band energies (ev):

     0.2723   8.7884  14.4428  17.1187  19.9233  22.6345

          k =-0.4167-0.2500-0.5833     band energies (ev):

     1.9060   6.1877  14.5934  15.9645  20.1284  21.5344

          k = 0.1667-0.5000-0.3333     band energies (ev):

     0.2723   8.7884  14.4428  17.1187  19.9233  22.6345

          k =-0.0833-0.2500-0.5833     band energies (ev):

     0.4541  10.2619  13.3071  14.6946  18.7244  21.8575

          k =-0.3333 0.5000 0.1667     band energies (ev):

     0.2723   8.7884  14.4428  17.1187  19.9233  22.6345

          k =-0.5833 0.7500-0.0833     band energies (ev):

     4.7507   6.1045   9.2740  13.3004  18.9760  25.2112

          k = 0.3333 0.1667-0.5000     band energies (ev):

     0.2723   8.7884  14.4428  17.1187  19.9233  22.6345

          k = 0.0833 0.4167-0.7500     band energies (ev):

     3.3354   7.4929  10.6182  12.0170  21.3732  22.8091

          k =-0.5833 0.7500 0.4167     band energies (ev):

     1.9060   6.1877  14.5934  15.9645  20.1284  21.5344

          k =-0.8333 1.0000 0.1667     band energies (ev):

     3.1427   8.9865  10.9333  12.2986  16.4792  18.7335

          k =-0.5833 0.7500-0.4167     band energies (ev):

     1.9060   6.1877  14.5934  15.9645  20.1284  21.5344

          k =-0.8333 1.0000-0.6667     band energies (ev):

    -1.9345  14.3749  15.5244  19.7814  20.3306  21.5802

          k =-0.5833 0.4167 0.7500     band energies (ev):

     1.9060   6.1877  14.5934  15.9645  20.1284  21.5344

          k =-0.8333 0.6667 0.5000     band energies (ev):

     0.2723   8.7884  14.4428  17.1187  19.9233  22.6345

          k = 0.7500 0.4167 0.5833     band energies (ev):

     1.9060   6.1877  14.5934  15.9645  20.1284  21.5344

          k = 0.5000 0.6667 0.3333     band energies (ev):

     3.7653   4.0036  14.9577  15.2658  20.4866  20.8666

          k =-0.7500 0.4167 0.5833     band energies (ev):

     1.9060   6.1877  14.5934  15.9645  20.1284  21.5344

          k =-1.0000 0.6667 0.3333     band energies (ev):

     1.7233   9.5506  10.9983  13.1825  20.5941  22.1673

          k = 0.5833-0.4167-0.7500     band energies (ev):

     1.9060   6.1877  14.5934  15.9645  20.1284  21.5344

          k = 0.3333-0.1667-1.0000     band energies (ev):

     6.1019   6.6212   7.5754  12.4695  18.0793  23.5134

          k =-0.5833-0.7500 0.4167     band energies (ev):

     1.9060   6.1877  14.5934  15.9645  20.1284  21.5344

          k =-0.8333-0.5000 0.1667     band energies (ev):

     5.1459   5.4109  10.8438  11.3956  21.7536  22.2820

          k =-0.5000 0.6667 0.3333     band energies (ev):

     3.7653   4.0036  14.9577  15.2658  20.4866  20.8666

          k =-0.7500 0.9167 0.0833     band energies (ev):

     4.6837   7.8077   8.9161  12.0193  17.3983  20.6929

          k =-0.5000 0.3333 0.6667     band energies (ev):

     3.7653   4.0036  14.9577  15.2658  20.4866  20.8666

          k =-0.7500 0.5833 0.4167     band energies (ev):

     1.9060   6.1877  14.5934  15.9645  20.1284  21.5344

          k =-0.6667 0.3333 0.5000     band energies (ev):

     3.7653   4.0036  14.9577  15.2658  20.4866  20.8666

          k =-0.9167 0.5833 0.2500     band energies (ev):

     3.3354   7.4929  10.6182  12.0170  21.3732  22.8091

          k = 0.1667 0.0000-0.5000     band energies (ev):

    -0.7047  12.7736  14.0123  16.2976  18.2783  20.3277

          k =-0.0833 0.2500-0.7500     band energies (ev):

     2.3796   9.3282  11.0003  12.4914  17.8462  21.0935

          k = 0.1667 0.0000 0.5000     band energies (ev):

    -0.7047  12.7736  14.0123  16.2976  18.2783  20.3277

          k =-0.0833 0.2500 0.2500     band energies (ev):

    -1.9963  13.4573  16.3456  20.7067  22.0087  23.2184

          k = 0.0000-0.5000-0.1667     band energies (ev):

    -0.7047  12.7736  14.0123  16.2976  18.2783  20.3277

          k =-0.2500-0.2500-0.4167     band energies (ev):

    -0.5208   9.4396  16.9673  18.5429  18.9764  23.3912

          k = 0.2500-0.0833-0.5833     band energies (ev):

     0.4541  10.2619  13.3071  14.6946  18.7244  21.8575

          k = 0.0000 0.1667-0.8333     band energies (ev):

     3.1427   8.9865  10.9333  12.2986  16.4792  18.7335

          k = 0.2500-0.0833 0.5833     band energies (ev):

     0.4541  10.2619  13.3071  14.6946  18.7244  21.8575

          k = 0.0000 0.1667 0.3333     band energies (ev):

    -1.9345  14.3749  15.5244  19.7814  20.3306  21.5802

          k = 0.2500-0.5833-0.0833     band energies (ev):

     0.4541  10.2619  13.3071  14.6946  18.7244  21.8575

          k = 0.0000-0.3333-0.3333     band energies (ev):

    -1.1953  12.3106  13.7022  20.1984  22.2298  22.3755

          k =-0.0833-0.5833-0.2500     band energies (ev):

     0.4541  10.2619  13.3071  14.6946  18.7244  21.8575

          k =-0.3333-0.3333-0.5000     band energies (ev):

     1.0011   6.7206  17.0298  17.7153  18.6450  22.2012

          k = 0.0833-0.5833-0.2500     band energies (ev):

     0.4541  10.2619  13.3071  14.6946  18.7244  21.8575

          k =-0.1667-0.3333-0.5000     band energies (ev):

     0.2723   8.7884  14.4428  17.1187  19.9233  22.6345

          k =-0.2500 0.5833 0.0833     band energies (ev):

     0.4541  10.2619  13.3071  14.6946  18.7244  21.8575

          k =-0.5000 0.8333-0.1667     band energies (ev):

     5.1459   5.4109  10.8438  11.3956  21.7536  22.2820

          k = 0.2500 0.0833-0.5833     band energies (ev):

     0.4541  10.2619  13.3071  14.6946  18.7244  21.8575

          k = 0.0000 0.3333-0.8333     band energies (ev):

     3.8552   8.8603   9.5691  10.5134  19.9305  21.6756

          k =-0.6667 0.8333 0.3333     band energies (ev):

     1.9642   7.6242  13.1452  13.5684  18.9426  23.8145

          k =-0.9167 1.0833 0.0833     band energies (ev):

     4.2149   7.3605  11.1214  13.5530  14.6844  17.9971

          k =-0.6667 0.8333-0.3333     band energies (ev):

     1.9642   7.6242  13.1452  13.5684  18.9426  23.8145

          k =-0.9167 1.0833-0.5833     band energies (ev):

    -1.5029  13.8509  16.1000  17.4236  18.2192  20.4184

          k =-0.6667 0.3333 0.8333     band energies (ev):

     1.9642   7.6242  13.1452  13.5684  18.9426  23.8145

          k =-0.9167 0.5833 0.5833     band energies (ev):

    -0.0322   9.8100  12.9322  18.6858  20.6857  22.5727

          k = 0.8333 0.3333 0.6667     band energies (ev):

     1.9642   7.6242  13.1452  13.5684  18.9426  23.8145

          k = 0.5833 0.5833 0.4167     band energies (ev):

     2.8627   4.3119  16.7806  17.4102  19.0602  21.3012

          k =-0.8333 0.3333 0.6667     band energies (ev):

     1.9642   7.6242  13.1452  13.5684  18.9426  23.8145

          k =-1.0833 0.5833 0.4167     band energies (ev):

     1.4236   8.4229  11.5766  15.5273  21.1565  22.2309

          k = 0.6667-0.3333-0.8333     band energies (ev):

     1.9642   7.6242  13.1452  13.5684  18.9426  23.8145

          k = 0.4167-0.0833-1.0833     band energies (ev):

     5.6141   7.0187   8.7609  10.2941  20.9701  23.7858

          k =-0.6667-0.8333 0.3333     band energies (ev):

     1.9642   7.6242  13.1452  13.5684  18.9426  23.8145

          k =-0.9167-0.5833 0.0833     band energies (ev):

     5.6141   7.0187   8.7609  10.2941  20.9701  23.7858

          k =-0.5833 0.7500 0.2500     band energies (ev):

     3.8062   5.2512  12.3732  13.7629  19.3905  23.1875

          k =-0.8333 1.0000 0.0000     band energies (ev):

     5.1847   6.5177  10.7027  12.0708  16.2523  18.5215

          k =-0.5833 0.7500-0.2500     band energies (ev):

     3.8062   5.2512  12.3732  13.7629  19.3905  23.1875

          k =-0.8333 1.0000-0.5000     band energies (ev):

    -0.7047  12.7736  14.0123  16.2976  18.2783  20.3277

          k =-0.5833 0.2500 0.7500     band energies (ev):

     3.8062   5.2512  12.3732  13.7629  19.3905  23.1875

          k =-0.8333 0.5000 0.5000     band energies (ev):

     1.4845   7.1628  12.9212  17.4616  19.3928  22.6638

          k = 0.7500 0.2500 0.5833     band energies (ev):

     3.8062   5.2512  12.3732  13.7629  19.3905  23.1875

          k = 0.5000 0.5000 0.3333     band energies (ev):

     2.2069   5.0768  16.1717  18.1080  19.8000  20.7123

          k =-0.7500 0.2500 0.5833     band energies (ev):

     3.8062   5.2512  12.3732  13.7629  19.3905  23.1875

          k =-1.0000 0.5000 0.3333     band energies (ev):

     2.9233   7.9396   9.4207  14.2483  19.9426  24.4225

          k = 0.5833-0.2500-0.7500     band energies (ev):

     3.8062   5.2512  12.3732  13.7629  19.3905  23.1875

          k = 0.3333 0.0000-1.0000     band energies (ev):

     5.8725   7.2193   8.6301  10.1851  19.7069  21.4933

          k =-0.5833-0.7500 0.2500     band energies (ev):

     3.8062   5.2512  12.3732  13.7629  19.3905  23.1875

          k =-0.8333-0.5000 0.0000     band energies (ev):

     5.0328   7.2501   8.6858  10.9413  21.7758  23.8083

          k =-0.5000 0.6667 0.1667     band energies (ev):

     3.1613   5.9931  11.7826  14.4728  20.1338  22.5824

          k =-0.7500 0.9167-0.0833     band energies (ev):

     4.6837   7.8077   8.9161  12.0193  17.3983  20.6929

          k =-0.5000 0.6667-0.1667     band energies (ev):

     3.1613   5.9931  11.7826  14.4728  20.1338  22.5824

          k =-0.7500 0.9167-0.4167     band energies (ev):

     0.4541  10.2619  13.3071  14.6946  18.7244  21.8575

          k =-0.5000 0.1667 0.6667     band energies (ev):

     3.1613   5.9931  11.7826  14.4728  20.1338  22.5824

          k =-0.7500 0.4167 0.4167     band energies (ev):

     3.3382   4.7794  13.2979  16.5508  18.4053  23.0435

          k = 0.6667 0.1667 0.5000     band energies (ev):

     3.1613   5.9931  11.7826  14.4728  20.1338  22.5824

          k = 0.4167 0.4167 0.2500     band energies (ev):

     0.4551   7.5920  15.8927  19.1138  20.4457  20.8549

          k =-0.6667 0.1667 0.5000     band energies (ev):

     3.1613   5.9931  11.7826  14.4728  20.1338  22.5824

          k =-0.9167 0.4167 0.2500     band energies (ev):

     4.7507   6.1045   9.2740  13.3004  18.9760  25.2112

          k = 0.5000-0.1667-0.6667     band energies (ev):

     3.1613   5.9931  11.7826  14.4728  20.1338  22.5824

          k = 0.2500 0.0833-0.9167     band energies (ev):

     4.6837   7.8077   8.9161  12.0193  17.3983  20.6929

          k =-0.5000-0.6667 0.1667     band energies (ev):

     3.1613   5.9931  11.7826  14.4728  20.1338  22.5824

          k =-0.7500-0.4167-0.0833     band energies (ev):

     3.3354   7.4929  10.6182  12.0170  21.3732  22.8091

          k =-0.4167 0.5833 0.0833     band energies (ev):

     1.4236   8.4229  11.5766  15.5273  21.1565  22.2309

          k =-0.6667 0.8333-0.1667     band energies (ev):

     4.0907   6.9195   9.9454  12.7001  18.2989  23.6785

          k =-0.4167 0.5833-0.0833     band energies (ev):

     1.4236   8.4229  11.5766  15.5273  21.1565  22.2309

          k =-0.6667 0.8333-0.3333     band energies (ev):

     1.9642   7.6242  13.1452  13.5684  18.9426  23.8145

          k =-0.4167 0.0833 0.5833     band energies (ev):

     1.4236   8.4229  11.5766  15.5273  21.1565  22.2309

          k =-0.6667 0.3333 0.3333     band energies (ev):

     2.6837   5.5457  14.0246  15.9590  17.7442  23.7298

          k = 0.5833 0.0833 0.4167     band energies (ev):

     1.4236   8.4229  11.5766  15.5273  21.1565  22.2309

          k = 0.3333 0.3333 0.1667     band energies (ev):

    -0.9497  10.4027  15.9464  20.2501  20.6601  22.1985

          k =-0.5833 0.0833 0.4167     band energies (ev):

     1.4236   8.4229  11.5766  15.5273  21.1565  22.2309

          k =-0.8333 0.3333 0.1667     band energies (ev):

     4.0907   6.9195   9.9454  12.7001  18.2989  23.6785

          k = 0.4167-0.0833-0.5833     band energies (ev):

     1.4236   8.4229  11.5766  15.5273  21.1565  22.2309

          k = 0.1667 0.1667-0.8333     band energies (ev):

     3.3805   8.8865   9.3495  14.0326  15.5475  20.6654

          k =-0.4167-0.5833 0.0833     band energies (ev):

     1.4236   8.4229  11.5766  15.5273  21.1565  22.2309

          k =-0.6667-0.3333-0.1667     band energies (ev):

     1.9642   7.6242  13.1452  13.5684  18.9426  23.8145

          k =-0.3333 0.5000 0.0000     band energies (ev):

     0.0286  10.7011  12.1584  16.9079  21.6490  22.3281

          k =-0.5833 0.7500-0.2500     band energies (ev):

     3.8062   5.2512  12.3732  13.7629  19.3905  23.1875

          k =-0.3333 0.0000 0.5000     band energies (ev):

     0.0286  10.7011  12.1584  16.9079  21.6490  22.3281

          k =-0.5833 0.2500 0.2500     band energies (ev):

     0.9397   8.0471  15.0886  15.6868  17.4119  24.4777

          k =-0.5000 0.0000 0.3333     band energies (ev):

     0.0286  10.7011  12.1584  16.9079  21.6490  22.3281

          k =-0.7500 0.2500 0.0833     band energies (ev):

     2.3796   9.3282  11.0003  12.4914  17.8462  21.0935

          k = 0.1667 0.0000-0.6667     band energies (ev):

     0.9984  11.6244  12.3430  13.0417  17.1582  19.3536

[...]

     4.6837   7.8077   8.9161  12.0193  17.3983  20.6929

          k = 0.4167-1.0833 0.7500 (   672 PWs)   bands (ev):

     0.4541  10.2619  13.3071  14.6946  18.7244  21.8575

          k =-0.7500 0.0833 0.9167 (   681 PWs)   bands (ev):

     4.6837   7.8077   8.9161  12.0193  17.3983  20.6929

          k =-1.2500-0.9167 0.9167 (   672 PWs)   bands (ev):

    -2.4912  15.6436  17.7907  19.0839  21.5692  22.6018

          k =-0.0833 0.9167 0.7500 (   681 PWs)   bands (ev):

     4.6837   7.8077   8.9161  12.0193  17.3983  20.6929

          k =-0.5833-0.0833 0.7500 (   677 PWs)   bands (ev):

     4.7507   6.1045   9.2740  13.3004  18.9760  25.2112

          k = 0.0833 0.9167-0.7500 (   681 PWs)   bands (ev):

     4.6837   7.8077   8.9161  12.0193  17.3983  20.6929

          k =-0.4167-0.0833-0.7500 (   675 PWs)   bands (ev):

     3.3354   7.4929  10.6182  12.0170  21.3732  22.8091

          k =-0.8333 0.0000-0.6667 (   674 PWs)   bands (ev):

     6.1019   6.6212   7.5754  12.4695  18.0793  23.5134

          k =-1.3333-1.0000-0.6667 (   662 PWs)   bands (ev):

    -1.1953  12.3106  13.7022  20.1984  22.2298  22.3755

          k = 0.8333 0.0000 0.6667 (   674 PWs)   bands (ev):

     6.1019   6.6212   7.5754  12.4695  18.0793  23.5134

          k = 0.3333-1.0000 0.6667 (   670 PWs)   bands (ev):

     1.7233   9.5506  10.9983  13.1825  20.5941  22.1673

          k =-0.6667 0.0000 0.8333 (   674 PWs)   bands (ev):

     6.1019   6.6212   7.5754  12.4695  18.0793  23.5134

          k =-1.1667-1.0000 0.8333 (   672 PWs)   bands (ev):

    -2.6772  16.4118  17.3362  20.9131  22.0359  23.0825

          k = 0.0000 0.8333 0.6667 (   674 PWs)   bands (ev):

     6.1019   6.6212   7.5754  12.4695  18.0793  23.5134

          k =-0.5000-0.1667 0.6667 (   675 PWs)   bands (ev):

     3.1613   5.9931  11.7826  14.4728  20.1338  22.5824

          k = 0.0000 1.0000 0.1667 (   674 PWs)   bands (ev):

     5.1847   6.5177  10.7027  12.0708  16.2523  18.5215

          k =-0.5000 0.0000 0.1667 (   668 PWs)   bands (ev):

    -0.7047  12.7736  14.0123  16.2976  18.2783  20.3277

          k = 0.1667 1.0000 0.0000 (   674 PWs)   bands (ev):

     5.1847   6.5177  10.7027  12.0708  16.2523  18.5215

          k =-0.3333 0.0000 0.0000 (   673 PWs)   bands (ev):

    -2.1817  16.7856  16.7856  16.9827  19.9699  20.2737

          k =-1.0000 0.0000-0.1667 (   674 PWs)   bands (ev):

     5.1847   6.5177  10.7027  12.0708  16.2523  18.5215

          k =-1.5000-1.0000-0.1667 (   682 PWs)   bands (ev):

     5.0328   7.2501   8.6858  10.9413  21.7758  23.8083

          k =-1.0000 0.3333-0.6667 (   670 PWs)   bands (ev):

     1.7233   9.5506  10.9983  13.1825  20.5941  22.1673

          k =-1.5000-0.6667-0.6667 (   657 PWs)   bands (ev):

     1.0011   6.7206  17.0298  17.7153  18.6450  22.2012

          k =-0.6667 0.3333 1.0000 (   670 PWs)   bands (ev):

     1.7233   9.5506  10.9983  13.1825  20.5941  22.1673

          k =-1.1667-0.6667 1.0000 (   675 PWs)   bands (ev):

    -1.9345  14.3749  15.5244  19.7814  20.3306  21.5802

          k =-0.3333 1.0000 0.6667 (   670 PWs)   bands (ev):

     1.7233   9.5506  10.9983  13.1825  20.5941  22.1673

          k =-0.8333 0.0000 0.6667 (   674 PWs)   bands (ev):

     6.1019   6.6212   7.5754  12.4695  18.0793  23.5134

          k = 0.3333 1.0000-0.6667 (   670 PWs)   bands (ev):

     1.7233   9.5506  10.9983  13.1825  20.5941  22.1673

          k =-0.1667 0.0000-0.6667 (   663 PWs)   bands (ev):

     0.9984  11.6244  12.3430  13.0417  17.1582  19.3536

          k =-0.9167 0.2500-0.5833 (   675 PWs)   bands (ev):

     3.3354   7.4929  10.6182  12.0170  21.3732  22.8091

          k =-1.4167-0.7500-0.5833 (   669 PWs)   bands (ev):

     0.4551   7.5920  15.8927  19.1138  20.4457  20.8549

          k = 0.9167-0.2500 0.5833 (   675 PWs)   bands (ev):

     3.3354   7.4929  10.6182  12.0170  21.3732  22.8091

          k = 0.4167-1.2500 0.5833 (   671 PWs)   bands (ev):

     1.9060   6.1877  14.5934  15.9645  20.1284  21.5344

          k =-0.5833 0.2500 0.9167 (   675 PWs)   bands (ev):

     3.3354   7.4929  10.6182  12.0170  21.3732  22.8091

          k =-1.0833-0.7500 0.9167 (   672 PWs)   bands (ev):

    -2.4912  15.6436  17.7907  19.0839  21.5692  22.6018

          k =-0.2500 0.9167 0.5833 (   675 PWs)   bands (ev):

     3.3354   7.4929  10.6182  12.0170  21.3732  22.8091

          k =-0.7500-0.0833 0.5833 (   677 PWs)   bands (ev):

     4.7507   6.1045   9.2740  13.3004  18.9760  25.2112

          k = 0.2500 0.9167-0.5833 (   675 PWs)   bands (ev):

     3.3354   7.4929  10.6182  12.0170  21.3732  22.8091

          k =-0.2500-0.0833-0.5833 (   672 PWs)   bands (ev):

     0.4541  10.2619  13.3071  14.6946  18.7244  21.8575

          k =-0.8333 0.1667-0.5000 (   682 PWs)   bands (ev):

     5.1459   5.4109  10.8438  11.3956  21.7536  22.2820

          k =-1.3333-0.8333-0.5000 (   669 PWs)   bands (ev):

     0.2723   8.7884  14.4428  17.1187  19.9233  22.6345

          k = 0.8333-0.1667 0.5000 (   682 PWs)   bands (ev):

     5.1459   5.4109  10.8438  11.3956  21.7536  22.2820

          k = 0.3333-1.1667 0.5000 (   675 PWs)   bands (ev):

     3.1613   5.9931  11.7826  14.4728  20.1338  22.5824

          k =-0.5000 0.1667 0.8333 (   682 PWs)   bands (ev):

     5.1459   5.4109  10.8438  11.3956  21.7536  22.2820

          k =-1.0000-0.8333 0.8333 (   672 PWs)   bands (ev):

    -2.6772  16.4118  17.3362  20.9131  22.0359  23.0825

          k =-1.0000 0.1667-0.6667 (   676 PWs)   bands (ev):

     3.8552   8.8603   9.5691  10.5134  19.9305  21.6756

          k =-1.5000-0.8333-0.6667 (   669 PWs)   bands (ev):

     0.2723   8.7884  14.4428  17.1187  19.9233  22.6345

          k =-0.6667 0.1667 1.0000 (   676 PWs)   bands (ev):

     3.8552   8.8603   9.5691  10.5134  19.9305  21.6756

          k =-1.1667-0.8333 1.0000 (   672 PWs)   bands (ev):

    -2.6772  16.4118  17.3362  20.9131  22.0359  23.0825

          k =-0.1667 1.0000 0.6667 (   676 PWs)   bands (ev):

     3.8552   8.8603   9.5691  10.5134  19.9305  21.6756

          k =-0.6667 0.0000 0.6667 (   680 PWs)   bands (ev):

     4.5813   6.7906   8.2498  15.1040  16.8747  26.4260

          k = 0.1667 1.0000-0.6667 (   676 PWs)   bands (ev):

     3.8552   8.8603   9.5691  10.5134  19.9305  21.6756

          k =-0.3333 0.0000-0.6667 (   670 PWs)   bands (ev):

     1.7233   9.5506  10.9983  13.1825  20.5941  22.1673

          k =-0.9167 0.0833-0.5833 (   679 PWs)   bands (ev):

     5.6141   7.0187   8.7609  10.2941  20.9701  23.7858

          k =-1.4167-0.9167-0.5833 (   666 PWs)   bands (ev):

    -0.0322   9.8100  12.9322  18.6858  20.6857  22.5727

          k = 0.9167-0.0833 0.5833 (   679 PWs)   bands (ev):

     5.6141   7.0187   8.7609  10.2941  20.9701  23.7858

          k = 0.4167-1.0833 0.5833 (   668 PWs)   bands (ev):

     1.4236   8.4229  11.5766  15.5273  21.1565  22.2309

          k =-0.5833 0.0833 0.9167 (   679 PWs)   bands (ev):

     5.6141   7.0187   8.7609  10.2941  20.9701  23.7858

          k =-1.0833-0.9167 0.9167 (   667 PWs)   bands (ev):

    -2.9877  17.7857  19.8225  19.8225  22.4809  22.6560

          k =-0.0833 0.9167 0.5833 (   679 PWs)   bands (ev):

     5.6141   7.0187   8.7609  10.2941  20.9701  23.7858

          k =-0.5833-0.0833 0.5833 (   678 PWs)   bands (ev):

     2.8647   7.0310  10.2085  16.1218  17.9996  25.2164

          k = 0.0833 0.9167-0.5833 (   679 PWs)   bands (ev):

     5.6141   7.0187   8.7609  10.2941  20.9701  23.7858

          k =-0.4167-0.0833-0.5833 (   668 PWs)   bands (ev):

     1.4236   8.4229  11.5766  15.5273  21.1565  22.2309

          k =-0.8333 0.0000-0.5000 (   682 PWs)   bands (ev):

     5.0328   7.2501   8.6858  10.9413  21.7758  23.8083

          k =-1.3333-1.0000-0.5000 (   667 PWs)   bands (ev):

     0.0286  10.7011  12.1584  16.9079  21.6490  22.3281

          k = 0.8333 0.0000 0.5000 (   682 PWs)   bands (ev):

     5.0328   7.2501   8.6858  10.9413  21.7758  23.8083

          k = 0.3333-1.0000 0.5000 (   676 PWs)   bands (ev):

     2.9233   7.9396   9.4207  14.2483  19.9426  24.4225

          k =-0.5000 0.0000 0.8333 (   682 PWs)   bands (ev):

     5.0328   7.2501   8.6858  10.9413  21.7758  23.8083

          k =-1.0000-1.0000 0.8333 (   669 PWs)   bands (ev):

    -2.9256  18.6682  18.6682  19.0013  21.2085  23.8955

          k = 0.0000 0.8333 0.5000 (   682 PWs)   bands (ev):

     5.0328   7.2501   8.6858  10.9413  21.7758  23.8083

          k =-0.5000-0.1667 0.5000 (   672 PWs)   bands (ev):

     1.4845   7.1628  12.9212  17.4616  19.3928  22.6638

          k = 0.0000 1.0000 0.3333 (   682 PWs)   bands (ev):

     5.8725   7.2193   8.6301  10.1851  19.7069  21.4933

          k =-0.5000 0.0000 0.3333 (   667 PWs)   bands (ev):

     0.0286  10.7011  12.1584  16.9079  21.6490  22.3281

          k = 0.3333 1.0000 0.0000 (   682 PWs)   bands (ev):

     5.8725   7.2193   8.6301  10.1851  19.7069  21.4933

          k =-0.1667 0.0000 0.0000 (   669 PWs)   bands (ev):

    -2.9256  18.6682  18.6682  19.0013  21.2085  23.8955

          k =-1.0000 0.0000-0.3333 (   682 PWs)   bands (ev):

     5.8725   7.2193   8.6301  10.1851  19.7069  21.4933

          k =-1.5000-1.0000-0.3333 (   676 PWs)   bands (ev):

     2.9233   7.9396   9.4207  14.2483  19.9426  24.4225

          k = 0.0000 1.0000 0.5000 (   684 PWs)   bands (ev):

     7.0204   7.0204   8.0403   8.9402  23.5938  23.5938

          k =-0.5000 0.0000 0.5000 (   670 PWs)   bands (ev):

     1.2428   9.0897  10.5860  17.2463  19.2128  24.7917

          k = 0.5000 1.0000 0.0000 (   684 PWs)   bands (ev):

     7.0204   7.0204   8.0403   8.9402  23.5938  23.5938

          k = 0.0000 0.0000 0.0000 (   645 PWs)   bands (ev):

    -3.1743  20.4239  20.4239  20.4239  21.7677  21.7677

     the Fermi energy is     7.7357 ev

     Writing output data file al.save

                                                                                

     bravais-lattice index     =            2
     lattice parameter (alat)  =       7.6670  a.u.
     unit-cell volume          =     112.6721 (a.u.)^3
     number of atoms/cell      =            1
     number of atomic types    =            1
     kinetic-energy cut-off    =      50.0000  Ry
     charge density cut-off    =     200.0000  Ry
     convergence threshold     =      1.0E-14
     beta                      =       0.7000
     number of iterations used =            4
     Exchange-correlation      =  SLA  PW   PBE  PBE ( 1 4 3 4 0)
     EXX-fraction              =        0.00


     celldm(1)=    7.66700  celldm(2)=    0.00000  celldm(3)=    0.00000
     celldm(4)=    0.00000  celldm(5)=    0.00000  celldm(6)=    0.00000

     crystal axes: (cart. coord. in units of alat)
               a(1) = ( -0.5000  0.0000  0.5000 )  
               a(2) = (  0.0000  0.5000  0.5000 )  
               a(3) = ( -0.5000  0.5000  0.0000 )  

     reciprocal axes: (cart. coord. in units 2 pi/alat)
               b(1) = ( -1.0000 -1.0000  1.0000 )  
               b(2) = (  1.0000  1.0000  1.0000 )  
               b(3) = ( -1.0000  1.0000 -1.0000 )  


     Atoms inside the unit cell: 

   Cartesian axes

     site n.  atom      mass           positions (alat units)
        1        Al  26.9820   tau( 1) = (    0.00000    0.00000    0.00000  )

     Computing dynamical matrix for 
                    q = (  -0.5000000  -1.0000000   0.0000000 )
 
      8 Sym.Ops. (no q -> -q+G )


     G cutoff =  297.7976  (   5329 G-vectors)     FFT grid: ( 25, 25, 25)

     number of k points=   524  Fermi-Dirac smearing, width (Ry)=  0.0030

     PseudoPot. # 1 for Al read from file:
     ./tmp/al.save/Al.pbe-rrkj.UPF
     MD5 check sum: 440523622426eeadf7598608e552b40a
     Pseudo is Norm-conserving, Zval =  3.0
     Generated by new atomic code, or converted to UPF format
     Using radial grid of  879 points,  4 beta functions with: 
                l(1) =   0
                l(2) =   0
                l(3) =   1
                l(4) =   1


     Atomic displacements:
     There are   2 irreducible representations

     Representation     1      1 modes -B_2  X_3  W_2 To be done

     Representation     2      2 modes -E    X_5  W_3 To be done



     Alpha used in Ewald sum =   2.3000
     PHONON       : 19m42.28s CPU    20m23.84s WALL



     Representation #  1 mode #   1

     Self-consistent Calculation

      iter #   1 total cpu time :  1228.2 secs   av.it.:   4.2
      thresh= 0.100E-01 alpha_mix =  0.700 |ddv_scf|^2 =  0.183E-05

      iter #   2 total cpu time :  1232.3 secs   av.it.:   6.5
      thresh= 0.135E-03 alpha_mix =  0.700 |ddv_scf|^2 =  0.230E-06

      iter #   3 total cpu time :  1236.3 secs   av.it.:   6.4
      thresh= 0.479E-04 alpha_mix =  0.700 |ddv_scf|^2 =  0.459E-08

      iter #   4 total cpu time :  1240.1 secs   av.it.:   6.1
      thresh= 0.678E-05 alpha_mix =  0.700 |ddv_scf|^2 =  0.397E-11

      iter #   5 total cpu time :  1244.2 secs   av.it.:   6.4
      thresh= 0.199E-06 alpha_mix =  0.700 |ddv_scf|^2 =  0.123E-12

      iter #   6 total cpu time :  1248.2 secs   av.it.:   6.3
      thresh= 0.350E-07 alpha_mix =  0.700 |ddv_scf|^2 =  0.131E-15

     End of self-consistent calculation

     Convergence has been achieved 


     Representation #  2 modes #   2  3

     Self-consistent Calculation

      iter #   1 total cpu time :  1257.3 secs   av.it.:   4.4
      thresh= 0.100E-01 alpha_mix =  0.700 |ddv_scf|^2 =  0.100E-05

      iter #   2 total cpu time :  1265.8 secs   av.it.:   7.1
      thresh= 0.100E-03 alpha_mix =  0.700 |ddv_scf|^2 =  0.174E-06

      iter #   3 total cpu time :  1274.1 secs   av.it.:   6.9
      thresh= 0.417E-04 alpha_mix =  0.700 |ddv_scf|^2 =  0.134E-08

      iter #   4 total cpu time :  1282.1 secs   av.it.:   6.6
      thresh= 0.366E-05 alpha_mix =  0.700 |ddv_scf|^2 =  0.837E-12

      iter #   5 total cpu time :  1290.3 secs   av.it.:   6.8
      thresh= 0.915E-07 alpha_mix =  0.700 |ddv_scf|^2 =  0.377E-13

      iter #   6 total cpu time :  1298.4 secs   av.it.:   6.5
      thresh= 0.194E-07 alpha_mix =  0.700 |ddv_scf|^2 =  0.237E-16

     End of self-consistent calculation

     Convergence has been achieved 
 
     Number of q in the star =    6
     List of q in the star:
          1  -0.500000000  -1.000000000   0.000000000
          2   0.000000000   1.000000000   0.500000000
          3   0.000000000  -1.000000000  -0.500000000
          4   0.500000000   1.000000000   0.000000000
          5  -1.000000000  -0.500000000   0.000000000
          6   0.000000000  -0.500000000  -1.000000000

     Diagonalizing the dynamical matrix

     q = (   -0.500000000  -1.000000000   0.000000000 ) 

 **************************************************************************
     omega( 1) =       6.287804 [THz] =     209.738549 [cm-1]
     omega( 2) =       7.831012 [THz] =     261.214430 [cm-1]
     omega( 3) =       7.831012 [THz] =     261.214430 [cm-1]
 **************************************************************************

     Mode symmetry, D_2d (-42m) point group:

     omega(  1 -  1) =        209.7  [cm-1]   --> B_2  X_3  W_2      
     omega(  2 -  3) =        261.2  [cm-1]   --> E    X_5  W_3      

 **************************************************************************
 
     init_run     :      1.62s CPU      1.66s WALL (       7 calls)
     electrons    :    444.75s CPU    455.70s WALL (       7 calls)

     Called by init_run:
     wfcinit      :      0.00s CPU      0.00s WALL (       7 calls)
     potinit      :      0.13s CPU      0.13s WALL (       7 calls)

     Called by electrons:
     c_bands      :    444.69s CPU    455.58s WALL (       7 calls)
     v_of_rho     :      0.12s CPU      0.13s WALL (       8 calls)

     Called by c_bands:
     init_us_2    :     13.65s CPU     14.18s WALL (   64680 calls)
     cegterg      :    406.35s CPU    410.38s WALL (    5910 calls)

     Called by *egterg:
     h_psi        :    375.42s CPU    379.97s WALL (   90391 calls)
     g_psi        :      6.42s CPU      6.49s WALL (   79045 calls)
     cdiaghg      :     16.85s CPU     17.02s WALL (   84481 calls)

     Called by h_psi:
     add_vuspsi   :     13.40s CPU     14.06s WALL (  435185 calls)

     General routines
     calbec       :     24.52s CPU     24.60s WALL (  841431 calls)
     fft          :      1.20s CPU      1.21s WALL (    1704 calls)
     ffts         :      5.41s CPU      5.87s WALL (    8530 calls)
     fftw         :    959.93s CPU    980.19s WALL ( 2196374 calls)
     davcio       :     13.54s CPU     27.20s WALL (  269860 calls)
 
 
     PHONON       : 20m55.07s CPU    21m38.63s WALL

     INITIALIZATION: 
     phq_setup    :      0.34s CPU      0.35s WALL (       8 calls)
     phq_init     :      4.80s CPU      5.09s WALL (       8 calls)
 
     phq_init     :      4.80s CPU      5.09s WALL (       8 calls)
     init_vloc    :      0.01s CPU      0.01s WALL (       8 calls)
     init_us_1    :      0.70s CPU      0.70s WALL (       8 calls)
 
     DYNAMICAL MATRIX:
     dynmat0      :      2.30s CPU      2.39s WALL (       8 calls)
     phqscf       :    794.21s CPU    825.70s WALL (       8 calls)
     dynmatrix    :      0.03s CPU      0.03s WALL (       8 calls)
 
     phqscf       :    794.21s CPU    825.70s WALL (       8 calls)
     solve_linter :    789.87s CPU    821.05s WALL (      17 calls)
     drhodv       :      4.30s CPU      4.56s WALL (      17 calls)
 
     dynmat0      :      2.30s CPU      2.39s WALL (       8 calls)
     dynmat_us    :      2.28s CPU      2.37s WALL (       8 calls)
     d2ionq       :      0.01s CPU      0.01s WALL (       8 calls)
 
     dynmat_us    :      2.28s CPU      2.37s WALL (       8 calls)
 
     phqscf       :    794.21s CPU    825.70s WALL (       8 calls)
     solve_linter :    789.87s CPU    821.05s WALL (      17 calls)
 
     solve_linter :    789.87s CPU    821.05s WALL (      17 calls)
     dvqpsi_us    :     57.06s CPU     58.44s WALL (    8370 calls)
     ortho        :      4.42s CPU      4.81s WALL (   53980 calls)
     cgsolve      :    540.65s CPU    552.71s WALL (   53980 calls)
     incdrhoscf   :     88.23s CPU     90.37s WALL (   53980 calls)
     vpsifft      :     69.60s CPU     73.90s WALL (   45610 calls)
     dv_of_drho   :      1.57s CPU      1.62s WALL (     142 calls)
     mix_pot      :      0.28s CPU      0.41s WALL (     106 calls)
     ef_shift     :      0.02s CPU      0.04s WALL (       6 calls)
     localdos     :      0.10s CPU      0.11s WALL (       1 calls)
     symdvscf     :      0.91s CPU      0.92s WALL (     106 calls)
 
     dvqpsi_us    :     57.06s CPU     58.44s WALL (    8370 calls)
     dvqpsi_us_on :      2.58s CPU      2.54s WALL (    8370 calls)
 
     cgsolve      :    540.65s CPU    552.71s WALL (   53980 calls)
     ch_psi       :    532.74s CPU    544.63s WALL (  344794 calls)
 
     ch_psi       :    532.74s CPU    544.63s WALL (  344794 calls)
     h_psiq       :    511.84s CPU    523.51s WALL (  344794 calls)
     last         :     17.35s CPU     17.56s WALL (  344794 calls)
 
     h_psiq       :    511.84s CPU    523.51s WALL (  344794 calls)
     firstfft     :    237.27s CPU    243.23s WALL (  513657 calls)
     secondfft    :    230.13s CPU    234.94s WALL (  513657 calls)
     add_vuspsi   :     13.40s CPU     14.06s WALL (  435185 calls)
 
     incdrhoscf   :     88.23s CPU     90.37s WALL (   53980 calls)
 
 
      General routines
     calbec       :     24.52s CPU     24.60s WALL (  841431 calls)
     fft          :      1.20s CPU      1.21s WALL (    1704 calls)
     ffts         :      5.41s CPU      5.87s WALL (    8530 calls)
     fftw         :    959.93s CPU    980.19s WALL ( 2196374 calls)
     davcio       :     13.54s CPU     27.20s WALL (  269860 calls)
     write_rec    :      0.31s CPU      0.48s WALL (     123 calls)
 
