
     Program PWSCF v.4.3.2      starts on 23Jun2014 at  4:10: 5 

     This program is part of the open-source Quantum ESPRESSO suite
     for quantum simulation of materials; please cite
         "P. Giannozzi et al., J. Phys.:Condens. Matter 21 395502 (2009);
          URL http://www.quantum-espresso.org", 
     in publications or presentations arising from this work. More details at
     http://www.quantum-espresso.org/wiki/index.php/Citing_Quantum-ESPRESSO

     Current dimensions of program PWSCF are:
     Max number of different atomic species (ntypx) = 10
     Max number of k-points (npk) =  40000
     Max angular momentum in pseudopotentials (lmaxx) =  3
     Waiting for input...
     Reading input from stdin
Warning: card   &IONS ignored
Warning: card   / ignored
Warning: card   &CELL ignored
Warning: card   / ignored
 
     G-vector sticks info
     --------------------
     sticks:   dense  smooth     PW     G-vecs:    dense   smooth      PW
     Sum         409     409    127                 5329     5329     965
 


     bravais-lattice index     =            2
     lattice parameter (alat)  =       7.6670  a.u.
     unit-cell volume          =     112.6721 (a.u.)^3
     number of atoms/cell      =            1
     number of atomic types    =            1
     number of electrons       =         3.00
     number of Kohn-Sham states=            6
     kinetic-energy cutoff     =      50.0000  Ry
     charge density cutoff     =     200.0000  Ry
     convergence threshold     =      1.0E-08
     mixing beta               =       0.1000
     number of iterations used =            8  plain     mixing
     Exchange-correlation      =  SLA  PW   PBE  PBE ( 1 4 3 4 0)
     EXX-fraction              =        0.00

     celldm(1)=   7.667000  celldm(2)=   0.000000  celldm(3)=   0.000000
     celldm(4)=   0.000000  celldm(5)=   0.000000  celldm(6)=   0.000000

     crystal axes: (cart. coord. in units of alat)
               a(1) = (  -0.500000   0.000000   0.500000 )  
               a(2) = (   0.000000   0.500000   0.500000 )  
               a(3) = (  -0.500000   0.500000   0.000000 )  

     reciprocal axes: (cart. coord. in units 2 pi/alat)
               b(1) = ( -1.000000 -1.000000  1.000000 )  
               b(2) = (  1.000000  1.000000  1.000000 )  
               b(3) = ( -1.000000  1.000000 -1.000000 )  


     PseudoPot. # 1 for Al read from file:
     ../../pseudo/Al.pbe-rrkj.UPF
     MD5 check sum: b5320f8fdc07ab0d74f109f4aa58256b
     Pseudo is Norm-conserving, Zval =  3.0
     Generated by new atomic code, or converted to UPF format
     Using radial grid of  879 points,  4 beta functions with: 
                l(1) =   0
                l(2) =   0
                l(3) =   1
                l(4) =   1

     atomic species   valence    mass     pseudopotential
        Al             3.00    26.98200     Al( 1.00)

     48 Sym.Ops. (with inversion)


   Cartesian axes

     site n.     atom                  positions (alat units)
         1           Al  tau(   1) = (   0.0000000   0.0000000   0.0000000  )

     number of k points=    72  Fermi-Dirac smearing, width (Ry)=  0.0030
                       cart. coord. in units 2pi/alat
        k(    1) = (   0.0000000   0.0000000   0.0000000), wk =   0.0011574
        k(    2) = (  -0.0833333   0.0833333  -0.0833333), wk =   0.0092593
        k(    3) = (  -0.1666667   0.1666667  -0.1666667), wk =   0.0092593
        k(    4) = (  -0.2500000   0.2500000  -0.2500000), wk =   0.0092593
        k(    5) = (  -0.3333333   0.3333333  -0.3333333), wk =   0.0092593
        k(    6) = (  -0.4166667   0.4166667  -0.4166667), wk =   0.0092593
        k(    7) = (   0.5000000  -0.5000000   0.5000000), wk =   0.0046296
        k(    8) = (   0.0000000   0.1666667   0.0000000), wk =   0.0069444
        k(    9) = (  -0.0833333   0.2500000  -0.0833333), wk =   0.0277778
        k(   10) = (  -0.1666667   0.3333333  -0.1666667), wk =   0.0277778
        k(   11) = (  -0.2500000   0.4166667  -0.2500000), wk =   0.0277778
        k(   12) = (  -0.3333333   0.5000000  -0.3333333), wk =   0.0277778
        k(   13) = (   0.5833333  -0.4166667   0.5833333), wk =   0.0277778
        k(   14) = (   0.5000000  -0.3333333   0.5000000), wk =   0.0277778
        k(   15) = (   0.4166667  -0.2500000   0.4166667), wk =   0.0277778
        k(   16) = (   0.3333333  -0.1666667   0.3333333), wk =   0.0277778
        k(   17) = (   0.2500000  -0.0833333   0.2500000), wk =   0.0277778
        k(   18) = (   0.1666667   0.0000000   0.1666667), wk =   0.0138889
        k(   19) = (   0.0000000   0.3333333   0.0000000), wk =   0.0069444
        k(   20) = (  -0.0833333   0.4166667  -0.0833333), wk =   0.0277778
        k(   21) = (  -0.1666667   0.5000000  -0.1666667), wk =   0.0277778
        k(   22) = (  -0.2500000   0.5833333  -0.2500000), wk =   0.0277778
        k(   23) = (   0.6666667  -0.3333333   0.6666667), wk =   0.0277778
        k(   24) = (   0.5833333  -0.2500000   0.5833333), wk =   0.0277778
        k(   25) = (   0.5000000  -0.1666667   0.5000000), wk =   0.0277778
        k(   26) = (   0.4166667  -0.0833333   0.4166667), wk =   0.0277778
        k(   27) = (   0.3333333   0.0000000   0.3333333), wk =   0.0138889
        k(   28) = (   0.0000000   0.5000000   0.0000000), wk =   0.0069444
        k(   29) = (  -0.0833333   0.5833333  -0.0833333), wk =   0.0277778
        k(   30) = (  -0.1666667   0.6666667  -0.1666667), wk =   0.0277778
        k(   31) = (   0.7500000  -0.2500000   0.7500000), wk =   0.0277778
        k(   32) = (   0.6666667  -0.1666667   0.6666667), wk =   0.0277778
        k(   33) = (   0.5833333  -0.0833333   0.5833333), wk =   0.0277778
        k(   34) = (   0.5000000   0.0000000   0.5000000), wk =   0.0138889
        k(   35) = (   0.0000000   0.6666667   0.0000000), wk =   0.0069444
        k(   36) = (  -0.0833333   0.7500000  -0.0833333), wk =   0.0277778
        k(   37) = (   0.8333333  -0.1666667   0.8333333), wk =   0.0277778
        k(   38) = (   0.7500000  -0.0833333   0.7500000), wk =   0.0277778
        k(   39) = (   0.6666667   0.0000000   0.6666667), wk =   0.0138889
        k(   40) = (   0.0000000   0.8333333   0.0000000), wk =   0.0069444
        k(   41) = (   0.9166667  -0.0833333   0.9166667), wk =   0.0277778
        k(   42) = (   0.8333333   0.0000000   0.8333333), wk =   0.0138889
        k(   43) = (   0.0000000  -1.0000000   0.0000000), wk =   0.0034722
        k(   44) = (  -0.1666667   0.3333333   0.0000000), wk =   0.0277778
        k(   45) = (  -0.2500000   0.4166667  -0.0833333), wk =   0.0555556
        k(   46) = (  -0.3333333   0.5000000  -0.1666667), wk =   0.0555556
        k(   47) = (   0.5833333  -0.4166667   0.7500000), wk =   0.0555556
        k(   48) = (   0.5000000  -0.3333333   0.6666667), wk =   0.0277778
        k(   49) = (  -0.1666667   0.5000000   0.0000000), wk =   0.0277778
        k(   50) = (  -0.2500000   0.5833333  -0.0833333), wk =   0.0555556
        k(   51) = (   0.6666667  -0.3333333   0.8333333), wk =   0.0555556
        k(   52) = (   0.5833333  -0.2500000   0.7500000), wk =   0.0555556
        k(   53) = (   0.5000000  -0.1666667   0.6666667), wk =   0.0555556
        k(   54) = (   0.4166667  -0.0833333   0.5833333), wk =   0.0555556
        k(   55) = (   0.3333333   0.0000000   0.5000000), wk =   0.0277778
        k(   56) = (  -0.1666667   0.6666667   0.0000000), wk =   0.0277778
        k(   57) = (   0.7500000  -0.2500000   0.9166667), wk =   0.0555556
        k(   58) = (   0.6666667  -0.1666667   0.8333333), wk =   0.0555556
        k(   59) = (   0.5833333  -0.0833333   0.7500000), wk =   0.0555556
        k(   60) = (   0.5000000   0.0000000   0.6666667), wk =   0.0277778
        k(   61) = (   0.8333333  -0.1666667   1.0000000), wk =   0.0277778
        k(   62) = (   0.7500000  -0.0833333   0.9166667), wk =   0.0555556
        k(   63) = (   0.6666667   0.0000000   0.8333333), wk =   0.0277778
        k(   64) = (  -0.1666667  -1.0000000   0.0000000), wk =   0.0138889
        k(   65) = (   0.6666667  -0.3333333   1.0000000), wk =   0.0277778
        k(   66) = (   0.5833333  -0.2500000   0.9166667), wk =   0.0555556
        k(   67) = (   0.5000000  -0.1666667   0.8333333), wk =   0.0277778
        k(   68) = (   0.6666667  -0.1666667   1.0000000), wk =   0.0277778
        k(   69) = (   0.5833333  -0.0833333   0.9166667), wk =   0.0555556
        k(   70) = (   0.5000000   0.0000000   0.8333333), wk =   0.0277778
        k(   71) = (  -0.3333333  -1.0000000   0.0000000), wk =   0.0138889
        k(   72) = (  -0.5000000  -1.0000000   0.0000000), wk =   0.0069444

     Dense  grid:     5329 G-vectors     FFT dimensions: (  25,  25,  25)

     Largest allocated arrays     est. size (Mb)     dimensions
        Kohn-Sham Wavefunctions         0.06 Mb     (    692,    6)
        NL pseudopotentials             0.08 Mb     (    692,    8)
        Each V/rho on FFT grid          0.24 Mb     (  15625)
        Each G-vector array             0.04 Mb     (   5329)
        G-vector shells                 0.00 Mb     (    101)
     Largest temporary arrays     est. size (Mb)     dimensions
        Auxiliary wavefunctions         0.25 Mb     (    692,   24)
        Each subspace H/S matrix        0.01 Mb     (  24,  24)
        Each <psi_i|beta_j> matrix      0.00 Mb     (      8,    6)
        Arrays for rho mixing           1.91 Mb     (  15625,   8)

     Initial potential from superposition of free atoms

     starting charge    2.99741, renormalised to    3.00000
     Starting wfc are    4 atomic +    2 random wfc

     total cpu time spent up to now is        0.7 secs

     per-process dynamical memory:     3.7 Mb

     Self-consistent Calculation

     iteration #  1     ecut=    50.00 Ry     beta=0.10
     Davidson diagonalization with overlap
     ethr =  1.00E-02,  avg # of iterations =  4.7

     Threshold (ethr) on eigenvalues was too large:
     Diagonalizing with lowered threshold

     Davidson diagonalization with overlap
     ethr =  1.89E-04,  avg # of iterations =  1.9

     total cpu time spent up to now is        4.3 secs

     total energy              =      -4.14127803 Ry
     Harris-Foulkes estimate   =      -4.14135782 Ry
     estimated scf accuracy    <       0.00562853 Ry

     iteration #  2     ecut=    50.00 Ry     beta=0.10
     Davidson diagonalization with overlap
     ethr =  1.88E-04,  avg # of iterations =  1.0

     total cpu time spent up to now is        5.5 secs

     total energy              =      -4.14115798 Ry
     Harris-Foulkes estimate   =      -4.14127973 Ry
     estimated scf accuracy    <       0.00452848 Ry

     iteration #  3     ecut=    50.00 Ry     beta=0.10
     Davidson diagonalization with overlap
     ethr =  1.51E-04,  avg # of iterations =  1.0

     total cpu time spent up to now is        6.7 secs

     total energy              =      -4.14121128 Ry
     Harris-Foulkes estimate   =      -4.14120699 Ry
     estimated scf accuracy    <       0.00000460 Ry

     iteration #  4     ecut=    50.00 Ry     beta=0.10
     Davidson diagonalization with overlap
     ethr =  1.53E-07,  avg # of iterations =  2.7

     total cpu time spent up to now is        8.2 secs

     total energy              =      -4.14121151 Ry
     Harris-Foulkes estimate   =      -4.14121192 Ry
     estimated scf accuracy    <       0.00000520 Ry

     iteration #  5     ecut=    50.00 Ry     beta=0.10
     Davidson diagonalization with overlap
     ethr =  1.53E-07,  avg # of iterations =  1.0

     total cpu time spent up to now is        9.4 secs

     total energy              =      -4.14121161 Ry
     Harris-Foulkes estimate   =      -4.14121159 Ry
     estimated scf accuracy    <       0.00000004 Ry

     iteration #  6     ecut=    50.00 Ry     beta=0.10
     Davidson diagonalization with overlap
     ethr =  1.27E-09,  avg # of iterations =  1.0

     total cpu time spent up to now is       10.6 secs

     End of self-consistent calculation

          k = 0.0000 0.0000 0.0000 (   645 PWs)   bands (ev):

    -3.1743  20.4240  20.4240  21.7677  21.7677  21.7677

          k =-0.0833 0.0833-0.0833 (   667 PWs)   bands (ev):

    -2.9877  17.7857  19.8225  19.8225  22.4809  22.6560

          k =-0.1667 0.1667-0.1667 (   661 PWs)   bands (ev):

    -2.4293  14.4469  19.1116  19.1116  22.3173  23.7323

          k =-0.2500 0.2500-0.2500 (   664 PWs)   bands (ev):

    -1.5029  11.2708  18.6674  18.6674  22.0995  22.5048

          k =-0.3333 0.3333-0.3333 (   658 PWs)   bands (ev):

    -0.2151   8.3517  18.5271  18.5271  21.1151  21.1151

          k =-0.4167 0.4167-0.4167 (   667 PWs)   bands (ev):

     1.4247   5.7263  18.6982  18.6982  20.0017  20.0017

          k = 0.5000-0.5000 0.5000 (   652 PWs)   bands (ev):

     3.3024   3.5192  19.1169  19.1169  19.2668  19.2668

          k = 0.0000 0.1667 0.0000 (   669 PWs)   bands (ev):

    -2.9256  18.6682  18.6682  19.0013  21.2085  23.8955

          k =-0.0833 0.2500-0.0833 (   672 PWs)   bands (ev):

    -2.4912  15.6436  17.7908  19.0840  21.5692  22.6018

          k =-0.1667 0.3333-0.1667 (   666 PWs)   bands (ev):

    -1.6877  12.4354  17.2217  18.7409  20.5221  23.3954

          k =-0.2500 0.4167-0.2500 (   665 PWs)   bands (ev):

    -0.5208   9.4397  16.9674  18.5429  18.9764  23.3913

          k =-0.3333 0.5000-0.3333 (   657 PWs)   bands (ev):

     1.0011   6.7206  17.0298  17.7153  18.6450  22.2012

          k = 0.5833-0.4167 0.5833 (   668 PWs)   bands (ev):

     2.8627   4.3119  16.7806  17.4102  19.0602  21.3012

          k = 0.5000-0.3333 0.5000 (   670 PWs)   bands (ev):

     2.2069   5.0768  16.1717  18.1080  19.8000  20.7123

          k = 0.4167-0.2500 0.4167 (   669 PWs)   bands (ev):

     0.4551   7.5920  15.8927  19.1138  20.4458  20.8550

          k = 0.3333-0.1667 0.3333 (   664 PWs)   bands (ev):

    -0.9497  10.4027  15.9464  20.2501  20.6601  22.1985

          k = 0.2500-0.0833 0.2500 (   671 PWs)   bands (ev):

    -1.9963  13.4574  16.3456  20.7068  22.0087  23.2184

          k = 0.1667 0.0000 0.1667 (   672 PWs)   bands (ev):

    -2.6772  16.4119  17.3362  20.9132  22.0359  23.0826

          k = 0.0000 0.3333 0.0000 (   673 PWs)   bands (ev):

    -2.1817  16.7856  16.7856  16.9827  19.9699  20.2737

          k =-0.0833 0.4167-0.0833 (   667 PWs)   bands (ev):

    -1.5029  13.8509  16.1000  17.4236  18.2192  20.4184

          k =-0.1667 0.5000-0.1667 (   675 PWs)   bands (ev):

    -0.4599  10.8362  15.7339  16.4749  17.3818  22.2302

          k =-0.2500 0.5833-0.2500 (   673 PWs)   bands (ev):

     0.9397   8.0471  15.0886  15.6868  17.4119  24.4777

          k = 0.6667-0.3333 0.6667 (   678 PWs)   bands (ev):

     2.6837   5.5457  14.0246  15.9590  17.7442  23.7298

          k = 0.5833-0.2500 0.5833 (   675 PWs)   bands (ev):

     3.3382   4.7794  13.2979  16.5508  18.4053  23.0435

          k = 0.5000-0.1667 0.5000 (   672 PWs)   bands (ev):

     1.4845   7.1628  12.9212  17.4616  19.3928  22.6638

          k = 0.4167-0.0833 0.4167 (   666 PWs)   bands (ev):

    -0.0322   9.8100  12.9322  18.6858  20.6857  22.5728

          k = 0.3333 0.0000 0.3333 (   662 PWs)   bands (ev):

    -1.1953  12.3107  13.7021  20.1985  22.2298  22.3756

          k = 0.0000 0.5000 0.0000 (   681 PWs)   bands (ev):

    -0.9499  15.3022  15.3022  15.3051  16.0530  18.7431

          k =-0.0833 0.5833-0.0833 (   669 PWs)   bands (ev):

    -0.0330  12.4811  14.2008  14.8261  16.0881  19.2571

          k =-0.1667 0.6667-0.1667 (   671 PWs)   bands (ev):

     1.2405   9.6791  12.6765  14.6702  16.2501  21.2710

          k = 0.7500-0.2500 0.7500 (   678 PWs)   bands (ev):

     2.8582   7.1111  11.4857  14.8339  16.5246  23.8242

          k = 0.6667-0.1667 0.6667 (   685 PWs)   bands (ev):

     4.6869   4.9501  10.6472  15.3175  17.0989  25.6917

          k = 0.5833-0.0833 0.5833 (   678 PWs)   bands (ev):

     2.8647   7.0310  10.2085  16.1218  17.9996  25.2165

          k = 0.5000 0.0000 0.5000 (   670 PWs)   bands (ev):

     1.2428   9.0897  10.5860  17.2463  19.2128  24.7918

          k = 0.0000 0.6667 0.0000 (   680 PWs)   bands (ev):

     0.7560  12.2041  14.0839  14.2412  14.2412  17.7133

          k =-0.0833 0.7500-0.0833 (   678 PWs)   bands (ev):

     1.8992  10.5275  11.5923  13.9770  15.1550  18.4273

          k = 0.8333-0.1667 0.8333 (   674 PWs)   bands (ev):

     3.3805   8.8865   9.3495  14.0326  15.5475  20.6654

          k = 0.7500-0.0833 0.7500 (   678 PWs)   bands (ev):

     5.1471   6.6293   8.3548  14.4080  16.0621  23.4584

          k = 0.6667 0.0000 0.6667 (   680 PWs)   bands (ev):

     4.5813   6.7906   8.2498  15.1040  16.8747  26.4261

          k = 0.0000 0.8333 0.0000 (   676 PWs)   bands (ev):

     2.9044   8.7613  13.3457  13.6051  13.6051  17.0546

          k = 0.9167-0.0833 0.9167 (   672 PWs)   bands (ev):

     4.2149   7.3605  11.1214  13.5530  14.6844  17.9971

          k = 0.8333 0.0000 0.8333 (   678 PWs)   bands (ev):

     5.4139   6.7476   8.7924  13.8203  15.3100  20.4591

          k = 0.0000-1.0000 0.0000 (   692 PWs)   bands (ev):

     4.9557   6.2775  13.0989  13.3933  13.3933  16.8288

          k =-0.1667 0.3333 0.0000 (   675 PWs)   bands (ev):

    -1.9345  14.3749  15.5244  19.7814  20.3306  21.5802

          k =-0.2500 0.4167-0.0833 (   666 PWs)   bands (ev):

    -1.0111  11.6411  14.6515  18.5935  19.9547  22.8602

          k =-0.3333 0.5000-0.1667 (   669 PWs)   bands (ev):

     0.2723   8.7884  14.4428  17.1187  19.9233  22.6345

          k = 0.5833-0.4167 0.7500 (   671 PWs)   bands (ev):

     1.9060   6.1877  14.5934  15.9645  20.1284  21.5344

          k = 0.5000-0.3333 0.6667 (   674 PWs)   bands (ev):

     3.7653   4.0036  14.9577  15.2658  20.4867  20.8666

          k =-0.1667 0.5000 0.0000 (   668 PWs)   bands (ev):

    -0.7047  12.7736  14.0123  16.2976  18.2784  20.3276

          k =-0.2500 0.5833-0.0833 (   672 PWs)   bands (ev):

     0.4541  10.2619  13.3071  14.6946  18.7245  21.8575

          k = 0.6667-0.3333 0.8333 (   673 PWs)   bands (ev):

     1.9642   7.6242  13.1452  13.5685  18.9426  23.8145

          k = 0.5833-0.2500 0.7500 (   674 PWs)   bands (ev):

     3.8062   5.2512  12.3732  13.7629  19.3905  23.1875

          k = 0.5000-0.1667 0.6667 (   675 PWs)   bands (ev):

     3.1613   5.9931  11.7826  14.4728  20.1338  22.5824

          k = 0.4167-0.0833 0.5833 (   668 PWs)   bands (ev):

     1.4236   8.4229  11.5766  15.5273  21.1565  22.2310

          k = 0.3333 0.0000 0.5000 (   667 PWs)   bands (ev):

     0.0286  10.7011  12.1584  16.9079  21.6491  22.3281

          k =-0.1667 0.6667 0.0000 (   663 PWs)   bands (ev):

     0.9984  11.6244  12.3430  13.0417  17.1582  19.3536

          k = 0.7500-0.2500 0.9167 (   671 PWs)   bands (ev):

     2.3796   9.3282  11.0003  12.4914  17.8462  21.0935

          k = 0.6667-0.1667 0.8333 (   675 PWs)   bands (ev):

     4.0908   6.9195   9.9454  12.7001  18.2989  23.6785

          k = 0.5833-0.0833 0.7500 (   677 PWs)   bands (ev):

     4.7507   6.1045   9.2740  13.3004  18.9760  25.2113

          k = 0.5000 0.0000 0.6667 (   676 PWs)   bands (ev):

     2.9233   7.9397   9.4207  14.2483  19.9426  24.4226

          k = 0.8333-0.1667 1.0000 (   674 PWs)   bands (ev):

     3.1427   8.9865  10.9333  12.2986  16.4793  18.7335

          k = 0.7500-0.0833 0.9167 (   681 PWs)   bands (ev):

     4.6837   7.8077   8.9161  12.0193  17.3983  20.6929

          k = 0.6667 0.0000 0.8333 (   674 PWs)   bands (ev):

     6.1020   6.6212   7.5754  12.4695  18.0793  23.5134

          k =-0.1667-1.0000 0.0000 (   674 PWs)   bands (ev):

     5.1848   6.5177  10.7027  12.0708  16.2523  18.5214

          k = 0.6667-0.3333 1.0000 (   670 PWs)   bands (ev):

     1.7233   9.5506  10.9983  13.1825  20.5941  22.1673

          k = 0.5833-0.2500 0.9167 (   675 PWs)   bands (ev):

     3.3354   7.4929  10.6182  12.0170  21.3732  22.8091

          k = 0.5000-0.1667 0.8333 (   682 PWs)   bands (ev):

     5.1459   5.4110  10.8438  11.3956  21.7537  22.2820

          k = 0.6667-0.1667 1.0000 (   676 PWs)   bands (ev):

     3.8552   8.8603   9.5691  10.5134  19.9305  21.6756

          k = 0.5833-0.0833 0.9167 (   679 PWs)   bands (ev):

     5.6141   7.0187   8.7609  10.2941  20.9702  23.7859

          k = 0.5000 0.0000 0.8333 (   682 PWs)   bands (ev):

     5.0328   7.2502   8.6858  10.9413  21.7758  23.8083

          k =-0.3333-1.0000 0.0000 (   682 PWs)   bands (ev):

     5.8726   7.2193   8.6302  10.1851  19.7069  21.4933

          k =-0.5000-1.0000 0.0000 (   684 PWs)   bands (ev):

     7.0204   7.0204   8.0403   8.9402  23.5939  23.5939

     the Fermi energy is     7.7357 ev

!    total energy              =      -4.14121162 Ry
     Harris-Foulkes estimate   =      -4.14121162 Ry
     estimated scf accuracy    <          5.6E-09 Ry

     The total energy is the sum of the following terms:

     one-electron contribution =       2.83376107 Ry
     hartree contribution      =       0.00824508 Ry
     xc contribution           =      -1.60108888 Ry
     ewald contribution        =      -5.38199544 Ry
     smearing contrib. (-TS)   =      -0.00013346 Ry

     convergence has been achieved in   6 iterations

     Forces acting on atoms (Ry/au):

     atom    1 type  1   force =     0.00000000    0.00000000    0.00000000

     Total force =     0.000000     Total SCF correction =     0.000000


     entering subroutine stress ...

          total   stress  (Ry/bohr**3)                   (kbar)     P=    2.74
   0.00001865   0.00000000   0.00000000          2.74      0.00      0.00
   0.00000000   0.00001865   0.00000000          0.00      2.74      0.00
   0.00000000   0.00000000   0.00001865          0.00      0.00      2.74


     Writing output data file al.save
 
     init_run     :      0.65s CPU      0.68s WALL (       1 calls)
     electrons    :      9.60s CPU      9.90s WALL (       1 calls)
     forces       :      0.04s CPU      0.04s WALL (       1 calls)
     stress       :      0.25s CPU      0.25s WALL (       1 calls)

     Called by init_run:
     wfcinit      :      0.49s CPU      0.52s WALL (       1 calls)
     potinit      :      0.02s CPU      0.02s WALL (       1 calls)

     Called by electrons:
     c_bands      :      7.90s CPU      8.16s WALL (       7 calls)
     sum_band     :      1.58s CPU      1.61s WALL (       7 calls)
     v_of_rho     :      0.11s CPU      0.12s WALL (       7 calls)
     mix_rho      :      0.01s CPU      0.01s WALL (       7 calls)

     Called by c_bands:
     init_us_2    :      0.22s CPU      0.28s WALL (    1224 calls)
     cegterg      :      7.61s CPU      7.82s WALL (     504 calls)

     Called by *egterg:
     h_psi        :      7.10s CPU      7.39s WALL (    1529 calls)
     g_psi        :      0.11s CPU      0.09s WALL (     953 calls)
     cdiaghg      :      0.21s CPU      0.22s WALL (    1385 calls)

     Called by h_psi:
     add_vuspsi   :      0.08s CPU      0.10s WALL (    1529 calls)

     General routines
     calbec       :      0.12s CPU      0.13s WALL (    1673 calls)
     fft          :      0.06s CPU      0.06s WALL (      86 calls)
     fftw         :      7.57s CPU      7.81s WALL (   18370 calls)
     davcio       :      0.10s CPU      0.09s WALL (    1728 calls)
 
 
     PWSCF        :    10.74s CPU        11.10s WALL

 
   This run was terminated on:   4:10:16  23Jun2014            

=------------------------------------------------------------------------------=
   JOB DONE.
=------------------------------------------------------------------------------=
