
     Program PWSCF v.4.3.2      starts on 24Jun2014 at 16:21:18 

     This program is part of the open-source Quantum ESPRESSO suite
     for quantum simulation of materials; please cite
         "P. Giannozzi et al., J. Phys.:Condens. Matter 21 395502 (2009);
          URL http://www.quantum-espresso.org", 
     in publications or presentations arising from this work. More details at
     http://www.quantum-espresso.org/wiki/index.php/Citing_Quantum-ESPRESSO

     Current dimensions of program PWSCF are:
     Max number of different atomic species (ntypx) = 10
     Max number of k-points (npk) =  40000
     Max angular momentum in pseudopotentials (lmaxx) =  3
     Waiting for input...
     Reading input from stdin
Warning: card   &IONS ignored
Warning: card   / ignored
Warning: card   &CELL ignored
Warning: card   / ignored
 
     G-vector sticks info
     --------------------
     sticks:   dense  smooth     PW     G-vecs:    dense   smooth      PW
     Sum         409     409    121                 5329     5329     941
 


     bravais-lattice index     =            2
     lattice parameter (alat)  =       7.6670  a.u.
     unit-cell volume          =     112.6721 (a.u.)^3
     number of atoms/cell      =            1
     number of atomic types    =            1
     number of electrons       =         3.00
     number of Kohn-Sham states=            6
     kinetic-energy cutoff     =      50.0000  Ry
     charge density cutoff     =     200.0000  Ry
     convergence threshold     =      1.0E-08
     mixing beta               =       0.1000
     number of iterations used =            8  plain     mixing
     Exchange-correlation      =  SLA  PW   PBE  PBE ( 1 4 3 4 0)
     EXX-fraction              =        0.00

     celldm(1)=   7.667000  celldm(2)=   0.000000  celldm(3)=   0.000000
     celldm(4)=   0.000000  celldm(5)=   0.000000  celldm(6)=   0.000000

     crystal axes: (cart. coord. in units of alat)
               a(1) = (  -0.500000   0.000000   0.500000 )  
               a(2) = (   0.000000   0.500000   0.500000 )  
               a(3) = (  -0.500000   0.500000   0.000000 )  

     reciprocal axes: (cart. coord. in units 2 pi/alat)
               b(1) = ( -1.000000 -1.000000  1.000000 )  
               b(2) = (  1.000000  1.000000  1.000000 )  
               b(3) = ( -1.000000  1.000000 -1.000000 )  


     PseudoPot. # 1 for Al read from file:
     ../../../../pseudo/Al.pbe-rrkj.UPF
     MD5 check sum: b5320f8fdc07ab0d74f109f4aa58256b
     Pseudo is Norm-conserving, Zval =  3.0
     Generated by new atomic code, or converted to UPF format
     Using radial grid of  879 points,  4 beta functions with: 
                l(1) =   0
                l(2) =   0
                l(3) =   1
                l(4) =   1

     atomic species   valence    mass     pseudopotential
        Al             3.00    26.98200     Al( 1.00)

     48 Sym.Ops. (with inversion)


   Cartesian axes

     site n.     atom                  positions (alat units)
         1           Al  tau(   1) = (   0.0000000   0.0000000   0.0000000  )

     number of k points=     5  Fermi-Dirac smearing, width (Ry)=  0.0030
                       cart. coord. in units 2pi/alat
        k(    1) = (   0.0000000   0.0000000   0.0000000), wk =   0.4878049
        k(    2) = (   0.0000000   0.0000000   1.0000000), wk =   0.4878049
        k(    3) = (   0.5000000   0.0000000   1.0000000), wk =   0.4878049
        k(    4) = (   0.5000000   0.5000000   0.5000000), wk =   0.4878049
        k(    5) = (   0.0000000   0.0000000   0.0000000), wk =   0.0487805

     Dense  grid:     5329 G-vectors     FFT dimensions: (  25,  25,  25)

     Largest allocated arrays     est. size (Mb)     dimensions
        Kohn-Sham Wavefunctions         0.06 Mb     (    692,    6)
        NL pseudopotentials             0.08 Mb     (    692,    8)
        Each V/rho on FFT grid          0.24 Mb     (  15625)
        Each G-vector array             0.04 Mb     (   5329)
        G-vector shells                 0.00 Mb     (    101)
     Largest temporary arrays     est. size (Mb)     dimensions
        Auxiliary wavefunctions         0.25 Mb     (    692,   24)
        Each subspace H/S matrix        0.01 Mb     (  24,  24)
        Each <psi_i|beta_j> matrix      0.00 Mb     (      8,    6)
        Arrays for rho mixing           1.91 Mb     (  15625,   8)

     Initial potential from superposition of free atoms

     starting charge    2.99741, renormalised to    3.00000
     Starting wfc are    4 atomic +    2 random wfc

     total cpu time spent up to now is        0.2 secs

     per-process dynamical memory:     3.7 Mb

     Self-consistent Calculation

     iteration #  1     ecut=    50.00 Ry     beta=0.10
     Davidson diagonalization with overlap
     ethr =  1.00E-02,  avg # of iterations =  5.4

     Threshold (ethr) on eigenvalues was too large:
     Diagonalizing with lowered threshold

     Davidson diagonalization with overlap
     ethr =  1.94E-04,  avg # of iterations =  1.4

     total cpu time spent up to now is        0.5 secs

     total energy              =      -4.12199308 Ry
     Harris-Foulkes estimate   =      -4.12206497 Ry
     estimated scf accuracy    <       0.00581143 Ry

     iteration #  2     ecut=    50.00 Ry     beta=0.10
     Davidson diagonalization with overlap
     ethr =  1.94E-04,  avg # of iterations =  1.0

     total cpu time spent up to now is        0.6 secs

     total energy              =      -4.12190272 Ry
     Harris-Foulkes estimate   =      -4.12199507 Ry
     estimated scf accuracy    <       0.00467833 Ry

     iteration #  3     ecut=    50.00 Ry     beta=0.10
     Davidson diagonalization with overlap
     ethr =  1.56E-04,  avg # of iterations =  1.6

     total cpu time spent up to now is        0.7 secs

     total energy              =      -4.12195303 Ry
     Harris-Foulkes estimate   =      -4.12194965 Ry
     estimated scf accuracy    <       0.00000370 Ry

     iteration #  4     ecut=    50.00 Ry     beta=0.10
     Davidson diagonalization with overlap
     ethr =  1.23E-07,  avg # of iterations =  3.2

     total cpu time spent up to now is        0.8 secs

     total energy              =      -4.12195416 Ry
     Harris-Foulkes estimate   =      -4.12195367 Ry
     estimated scf accuracy    <       0.00000329 Ry

     iteration #  5     ecut=    50.00 Ry     beta=0.10
     Davidson diagonalization with overlap
     ethr =  1.10E-07,  avg # of iterations =  1.0

     total cpu time spent up to now is        0.9 secs

     total energy              =      -4.12195428 Ry
     Harris-Foulkes estimate   =      -4.12195425 Ry
     estimated scf accuracy    <       0.00000024 Ry

     iteration #  6     ecut=    50.00 Ry     beta=0.10
     Davidson diagonalization with overlap
     ethr =  7.96E-09,  avg # of iterations =  1.0

     total cpu time spent up to now is        1.0 secs

     End of self-consistent calculation

          k = 0.0000 0.0000 0.0000 (   645 PWs)   bands (ev):

    -3.1728  20.4267  20.4268  21.7690  21.7690  21.7690

          k = 0.0000 0.0000 1.0000 (   692 PWs)   bands (ev):

     4.9577   6.2784  13.1019  13.3947  13.3947  16.8299

          k = 0.5000 0.0000 1.0000 (   684 PWs)   bands (ev):

     7.0225   7.0225   8.0404   8.9425  23.5966  23.5966

          k = 0.5000 0.5000 0.5000 (   652 PWs)   bands (ev):

     3.3035   3.5214  19.1194  19.1194  19.2672  19.2672

          k = 0.0000 0.0000 0.0000 (   645 PWs)   bands (ev):

    -3.1728  20.4267  20.4267  21.7690  21.7690  21.7690

     the Fermi energy is     7.0266 ev

!    total energy              =      -4.12195429 Ry
     Harris-Foulkes estimate   =      -4.12195429 Ry
     estimated scf accuracy    <          6.7E-09 Ry

     The total energy is the sum of the following terms:

     one-electron contribution =       2.85486646 Ry
     hartree contribution      =       0.00871927 Ry
     xc contribution           =      -1.60151952 Ry
     ewald contribution        =      -5.38199544 Ry
     smearing contrib. (-TS)   =      -0.00202506 Ry

     convergence has been achieved in   6 iterations

     Forces acting on atoms (Ry/au):

