
     Program PROJWFC v.5.0      starts on 16Jun2012 at 13:40:14 

     This program is part of the open-source Quantum ESPRESSO suite
     for quantum simulation of materials; please cite
         "P. Giannozzi et al., J. Phys.:Condens. Matter 21 395502 (2009);
          URL http://www.quantum-espresso.org", 
     in publications or presentations arising from this work. More details at
     http://www.quantum-espresso.org/quote.php

     Parallel version (MPI), running on     4 processors
     K-points division:     npool     =    4

   Info: using nr1, nr2, nr3 values from input

   Info: using nr1s, nr2s, nr3s values from input

     IMPORTANT: XC functional enforced from input :
     Exchange-correlation      =  SLA  PW   PBE  PBE ( 1 4 3 4 0)
     EXX-fraction              =        0.00
     Any further DFT definition will be discarded
     Please, verify this is what you really want

               file O.pbe-rrkjus.UPF: wavefunction(s)  2S renormalized
               file Fe.pbe-nd-rrkjus.UPF: wavefunction(s)  4S renormalized
               file Fe.pbe-nd-rrkjus.UPF: wavefunction(s)  4S renormalized
 
     G-vector sticks info
     --------------------
     sticks:   dense  smooth     PW     G-vecs:    dense   smooth      PW
     Sum        1061     539    179                17255     6111    1219
 

     Check: negative/imaginary core charge=   -0.000003    0.000000

     Gaussian broadening (read from file): ngauss,degauss=   1    0.020000


     Calling projwave .... 

     Atomic states used for projection
     (read from pseudopotential files):

     state #   1: atom   1 (O  ), wfc  1 (l=0 m= 1)
     state #   2: atom   1 (O  ), wfc  2 (l=1 m= 1)
     state #   3: atom   1 (O  ), wfc  2 (l=1 m= 2)
     state #   4: atom   1 (O  ), wfc  2 (l=1 m= 3)
     state #   5: atom   2 (O  ), wfc  1 (l=0 m= 1)
     state #   6: atom   2 (O  ), wfc  2 (l=1 m= 1)
     state #   7: atom   2 (O  ), wfc  2 (l=1 m= 2)
     state #   8: atom   2 (O  ), wfc  2 (l=1 m= 3)
     state #   9: atom   3 (Fe1), wfc  1 (l=0 m= 1)
     state #  10: atom   3 (Fe1), wfc  2 (l=2 m= 1)
     state #  11: atom   3 (Fe1), wfc  2 (l=2 m= 2)
     state #  12: atom   3 (Fe1), wfc  2 (l=2 m= 3)
     state #  13: atom   3 (Fe1), wfc  2 (l=2 m= 4)
     state #  14: atom   3 (Fe1), wfc  2 (l=2 m= 5)
     state #  15: atom   4 (Fe2), wfc  1 (l=0 m= 1)
     state #  16: atom   4 (Fe2), wfc  2 (l=2 m= 1)
     state #  17: atom   4 (Fe2), wfc  2 (l=2 m= 2)
     state #  18: atom   4 (Fe2), wfc  2 (l=2 m= 3)
     state #  19: atom   4 (Fe2), wfc  2 (l=2 m= 4)
     state #  20: atom   4 (Fe2), wfc  2 (l=2 m= 5)

 k =   0.0000000000  0.0000000000  0.0000000000
==== e(   1) =    -8.56025 eV ==== 
     psi = 0.295*[#   1]+0.295*[#   5]+0.210*[#   9]+0.201*[#  15]+
    |psi|^2 = 1.000
==== e(   2) =    -7.37501 eV ==== 
     psi = 0.496*[#   1]+0.496*[#   5]+
    |psi|^2 = 0.993
==== e(   3) =     1.88448 eV ==== 
     psi = 0.087*[#  11]+0.087*[#  12]+0.087*[#  14]+0.077*[#   2]+0.077*[#   3]+
          +0.077*[#   4]+0.077*[#   6]+0.077*[#   7]+0.077*[#   8]+0.075*[#   9]+
          +0.064*[#  15]+0.045*[#  17]+0.045*[#  18]+0.045*[#  20]+
    |psi|^2 = 1.000
==== e(   4) =     3.87340 eV ==== 
     psi = 0.247*[#  10]+0.247*[#  13]+0.096*[#  11]+0.096*[#  12]+0.096*[#  14]+
          +0.034*[#   2]+0.034*[#   3]+0.034*[#   4]+0.034*[#   6]+0.034*[#   7]+
          +0.034*[#   8]+0.007*[#  16]+0.007*[#  19]+
    |psi|^2 = 0.999
==== e(   5) =     3.87340 eV ==== 
     psi = 0.247*[#  10]+0.247*[#  13]+0.096*[#  11]+0.096*[#  12]+0.096*[#  14]+
          +0.034*[#   2]+0.034*[#   3]+0.034*[#   4]+0.034*[#   6]+0.034*[#   7]+
          +0.034*[#   8]+0.007*[#  16]+0.007*[#  19]+
    |psi|^2 = 0.999
==== e(   6) =     5.54620 eV ==== 
     psi = 0.234*[#  11]+0.234*[#  12]+0.234*[#  14]+0.123*[#  10]+0.123*[#  13]+
          +0.007*[#   2]+0.007*[#   3]+0.007*[#   4]+0.007*[#   6]+0.007*[#   7]+
          +0.007*[#   8]+0.002*[#  17]+0.002*[#  18]+0.002*[#  20]+
    |psi|^2 = 0.999
==== e(   7) =     5.54620 eV ==== 
     psi = 0.234*[#  11]+0.234*[#  12]+0.234*[#  14]+0.123*[#  10]+0.123*[#  13]+
          +0.007*[#   2]+0.007*[#   3]+0.007*[#   4]+0.007*[#   6]+0.007*[#   7]+
          +0.007*[#   8]+0.002*[#  17]+0.002*[#  18]+0.002*[#  20]+
    |psi|^2 = 0.999
==== e(   8) =     7.18874 eV ==== 
     psi = 0.216*[#  11]+0.216*[#  12]+0.216*[#  14]+0.089*[#  17]+0.089*[#  18]+
          +0.089*[#  20]+0.014*[#  15]+0.011*[#   2]+0.011*[#   3]+0.011*[#   4]+
          +0.011*[#   6]+0.011*[#   7]+0.011*[#   8]+0.005*[#   9]+
    |psi|^2 = 0.999
==== e(   9) =     8.25619 eV ==== 
     psi = 0.165*[#   2]+0.165*[#   3]+0.165*[#   4]+0.165*[#   6]+0.165*[#   7]+
          +0.165*[#   8]+
    |psi|^2 = 0.993
==== e(  10) =     8.29050 eV ==== 
     psi = 0.165*[#   2]+0.165*[#   3]+0.165*[#   4]+0.165*[#   6]+0.165*[#   7]+
          +0.165*[#   8]+
    |psi|^2 = 0.993
==== e(  11) =     8.29050 eV ==== 
     psi = 0.165*[#   2]+0.165*[#   3]+0.165*[#   4]+0.165*[#   6]+0.165*[#   7]+
          +0.165*[#   8]+
    |psi|^2 = 0.993
==== e(  12) =     8.84023 eV ==== 
     psi = 0.121*[#  10]+0.121*[#  13]+0.094*[#  16]+0.094*[#  19]+0.089*[#   2]+
          +0.089*[#   3]+0.089*[#   4]+0.089*[#   6]+0.089*[#   7]+0.089*[#   8]+
          +0.009*[#  17]+0.009*[#  18]+0.009*[#  20]+0.002*[#  11]+0.002*[#  12]+
          +0.002*[#  14]+
    |psi|^2 = 0.994
==== e(  13) =     8.84023 eV ==== 
     psi = 0.121*[#  10]+0.121*[#  13]+0.094*[#  16]+0.094*[#  19]+0.089*[#   2]+
          +0.089*[#   3]+0.089*[#   4]+0.089*[#   6]+0.089*[#   7]+0.089*[#   8]+
          +0.009*[#  17]+0.009*[#  18]+0.009*[#  20]+0.002*[#  11]+0.002*[#  12]+
          +0.002*[#  14]+
    |psi|^2 = 0.994
==== e(  14) =    10.07075 eV ==== 
     psi = 0.199*[#  17]+0.199*[#  18]+0.199*[#  20]+0.043*[#   2]+0.043*[#   3]+
          +0.043*[#   4]+0.043*[#   6]+0.043*[#   7]+0.043*[#   8]+0.031*[#   9]+
          +0.029*[#  11]+0.029*[#  12]+0.029*[#  14]+0.025*[#  15]+
    |psi|^2 = 0.999
==== e(  15) =    12.02926 eV ==== 
     psi = 0.317*[#   9]+0.269*[#  15]+0.203*[#   1]+0.203*[#   5]+
    |psi|^2 = 0.996
==== e(  16) =    13.28675 eV ==== 
     psi = 0.283*[#  17]+0.283*[#  18]+0.283*[#  20]+0.027*[#  16]+0.027*[#  19]+
          +0.014*[#   2]+0.014*[#   3]+0.014*[#   4]+0.014*[#   6]+0.014*[#   7]+
          +0.014*[#   8]+0.002*[#  10]+0.002*[#  13]+
    |psi|^2 = 0.996
==== e(  17) =    13.28675 eV ==== 
     psi = 0.283*[#  17]+0.283*[#  18]+0.283*[#  20]+0.027*[#  16]+0.027*[#  19]+
          +0.014*[#   2]+0.014*[#   3]+0.014*[#   4]+0.014*[#   6]+0.014*[#   7]+
          +0.014*[#   8]+0.002*[#  10]+0.002*[#  13]+
    |psi|^2 = 0.996
==== e(  18) =    14.34987 eV ==== 
     psi = 0.370*[#  16]+0.370*[#  19]+0.039*[#  17]+0.039*[#  18]+0.039*[#  20]+
          +0.021*[#   2]+0.021*[#   3]+0.021*[#   4]+0.021*[#   6]+0.021*[#   7]+
          +0.021*[#   8]+0.006*[#  10]+0.006*[#  13]+
    |psi|^2 = 0.994
==== e(  19) =    14.34987 eV ==== 
     psi = 0.370*[#  16]+0.370*[#  19]+0.039*[#  17]+0.039*[#  18]+0.039*[#  20]+
          +0.021*[#   2]+0.021*[#   3]+0.021*[#   4]+0.021*[#   6]+0.021*[#   7]+
          +0.021*[#   8]+0.006*[#  10]+0.006*[#  13]+
    |psi|^2 = 0.994
==== e(  20) =    16.02866 eV ==== 
     psi = 0.003*[#   1]+0.003*[#   5]+
    |psi|^2 = 0.005
==== e(  21) =    20.58462 eV ==== 
     psi = 0.421*[#  15]+0.357*[#   9]+0.035*[#   2]+0.035*[#   3]+0.035*[#   4]+
          +0.035*[#   6]+0.035*[#   7]+0.035*[#   8]+
    |psi|^2 = 0.990
==== e(  22) =    24.47213 eV ==== 
     psi = 
    |psi|^2 = 0.000
==== e(  23) =    24.47213 eV ==== 
     psi = 
    |psi|^2 = 0.000
==== e(  24) =    26.86808 eV ==== 
     psi = 
    |psi|^2 = 0.000

 k =   0.1875000000 -0.0625000000 -0.0625000000
==== e(   1) =    -8.42579 eV ==== 
     psi = 0.310*[#   1]+0.310*[#   5]+0.193*[#   9]+0.185*[#  15]+
    |psi|^2 = 1.000
==== e(   2) =    -7.40791 eV ==== 
     psi = 0.482*[#   1]+0.482*[#   5]+0.009*[#  10]+0.009*[#  13]+0.004*[#  16]+
          +0.004*[#  19]+0.002*[#   9]+
    |psi|^2 = 0.995
==== e(   3) =     2.27196 eV ==== 
     psi = 0.087*[#  11]+0.087*[#  12]+0.087*[#  14]+0.080*[#   2]+0.080*[#   3]+
          +0.080*[#   4]+0.080*[#   6]+0.080*[#   7]+0.080*[#   8]+0.070*[#   9]+
          +0.059*[#  15]+0.042*[#  17]+0.042*[#  18]+0.042*[#  20]+0.002*[#  10]+
          +0.002*[#  13]+
    |psi|^2 = 0.999
==== e(   4) =     3.81974 eV ==== 
     psi = 0.206*[#  10]+0.206*[#  13]+0.116*[#  11]+0.116*[#  12]+0.116*[#  14]+
          +0.037*[#   2]+0.037*[#   3]+0.037*[#   4]+0.037*[#   6]+0.037*[#   7]+
          +0.037*[#   8]+0.003*[#  16]+0.003*[#  19]+0.002*[#   1]+0.002*[#   5]+
          +0.001*[#  17]+0.001*[#  18]+0.001*[#  20]+
    |psi|^2 = 0.996
==== e(   5) =     4.01425 eV ==== 
     psi = 0.265*[#  10]+0.265*[#  13]+0.080*[#  11]+0.080*[#  12]+0.080*[#  14]+
          +0.036*[#   2]+0.036*[#   3]+0.036*[#   4]+0.036*[#   6]+0.036*[#   7]+
          +0.036*[#   8]+0.007*[#  16]+0.007*[#  19]+
    |psi|^2 = 0.999
==== e(   6) =     5.36428 eV ==== 
     psi = 0.194*[#  11]+0.194*[#  12]+0.194*[#  14]+0.142*[#  10]+0.142*[#  13]+
          +0.018*[#   2]+0.018*[#   3]+0.018*[#   4]+0.018*[#   6]+0.018*[#   7]+
          +0.018*[#   8]+0.005*[#   1]+0.005*[#   5]+0.003*[#  15]+0.002*[#   9]+
          +0.002*[#  17]+0.002*[#  18]+0.002*[#  20]+
    |psi|^2 = 0.997
==== e(   7) =     5.41669 eV ==== 
     psi = 0.240*[#  11]+0.240*[#  12]+0.240*[#  14]+0.100*[#  10]+0.100*[#  13]+
          +0.012*[#   2]+0.012*[#   3]+0.012*[#   4]+0.012*[#   6]+0.012*[#   7]+
          +0.012*[#   8]+0.002*[#  17]+0.002*[#  18]+0.002*[#  20]+
    |psi|^2 = 0.999
==== e(   8) =     7.05630 eV ==== 
     psi = 0.153*[#  11]+0.153*[#  12]+0.153*[#  14]+0.057*[#  17]+0.057*[#  18]+
          +0.057*[#  20]+0.052*[#   2]+0.052*[#   3]+0.052*[#   4]+0.052*[#   6]+
          +0.052*[#   7]+0.052*[#   8]+0.028*[#   9]+0.008*[#  16]+0.008*[#  19]+
          +0.005*[#   1]+0.005*[#   5]+
    |psi|^2 = 0.997
==== e(   9) =     7.44451 eV ==== 
     psi = 0.108*[#   2]+0.108*[#   3]+0.108*[#   4]+0.108*[#   6]+0.108*[#   7]+
          +0.108*[#   8]+0.048*[#  11]+0.048*[#  12]+0.048*[#  14]+0.042*[#  16]+
          +0.042*[#  19]+0.022*[#  17]+0.022*[#  18]+0.022*[#  20]+0.015*[#  15]+
          +0.007*[#   1]+0.007*[#   5]+0.007*[#  10]+0.007*[#  13]+0.006*[#   9]+
    |psi|^2 = 0.990
==== e(  10) =     8.01059 eV ==== 
     psi = 0.122*[#   2]+0.122*[#   3]+0.122*[#   4]+0.122*[#   6]+0.122*[#   7]+
          +0.122*[#   8]+0.040*[#  11]+0.040*[#  12]+0.040*[#  14]+0.034*[#  15]+
          +0.017*[#  10]+0.017*[#  13]+0.014*[#   1]+0.014*[#   5]+0.009*[#  17]+
          +0.009*[#  18]+0.009*[#  20]+0.007*[#   9]+0.004*[#  16]+0.004*[#  19]+
    |psi|^2 = 0.992
==== e(  11) =     8.16571 eV ==== 
     psi = 0.148*[#   2]+0.148*[#   3]+0.148*[#   4]+0.148*[#   6]+0.148*[#   7]+
          +0.148*[#   8]+0.028*[#  16]+0.028*[#  19]+0.012*[#  11]+0.012*[#  12]+
          +0.012*[#  14]+0.007*[#  10]+0.007*[#  13]+
    |psi|^2 = 0.992
==== e(  12) =     8.94661 eV ==== 
     psi = 0.120*[#  10]+0.120*[#  13]+0.101*[#   2]+0.101*[#   3]+0.101*[#   4]+
          +0.101*[#   6]+0.101*[#   7]+0.101*[#   8]+0.061*[#  16]+0.061*[#  19]+
          +0.008*[#  17]+0.008*[#  18]+0.008*[#  20]+
    |psi|^2 = 0.992
==== e(  13) =     9.11606 eV ==== 
     psi = 0.115*[#   2]+0.115*[#   3]+0.115*[#   4]+0.115*[#   6]+0.115*[#   7]+
          +0.115*[#   8]+0.110*[#  10]+0.110*[#  13]+0.012*[#  16]+0.012*[#  19]+
          +0.011*[#  15]+0.008*[#   1]+0.008*[#   5]+0.004*[#  17]+0.004*[#  18]+
          +0.004*[#  20]+0.003*[#   9]+0.002*[#  11]+0.002*[#  12]+0.002*[#  14]+
    |psi|^2 = 0.985
==== e(  14) =    10.01394 eV ==== 
     psi = 0.208*[#  17]+0.208*[#  18]+0.208*[#  20]+0.041*[#   2]+0.041*[#   3]+
          +0.041*[#   4]+0.041*[#   6]+0.041*[#   7]+0.041*[#   8]+0.033*[#   9]+
          +0.025*[#  11]+0.025*[#  12]+0.025*[#  14]+0.016*[#  15]+
    |psi|^2 = 0.998
==== e(  15) =    12.93990 eV ==== 
     psi = 0.287*[#   9]+0.221*[#  15]+0.150*[#   1]+0.150*[#   5]+0.022*[#   2]+
          +0.022*[#   3]+0.022*[#   4]+0.022*[#   6]+0.022*[#   7]+0.022*[#   8]+
          +0.018*[#  16]+0.018*[#  19]+0.004*[#  17]+0.004*[#  18]+0.004*[#  20]+
          +0.002*[#  10]+0.002*[#  13]+
    |psi|^2 = 0.994
==== e(  16) =    13.22807 eV ==== 
     psi = 0.269*[#  17]+0.269*[#  18]+0.269*[#  20]+0.046*[#  16]+0.046*[#  19]+
          +0.015*[#   2]+0.015*[#   3]+0.015*[#   4]+0.015*[#   6]+0.015*[#   7]+
          +0.015*[#   8]+0.001*[#  10]+0.001*[#  13]+
    |psi|^2 = 0.994
==== e(  17) =    13.31112 eV ==== 
     psi = 0.270*[#  17]+0.270*[#  18]+0.270*[#  20]+0.046*[#  16]+0.046*[#  19]+
          +0.014*[#   2]+0.014*[#   3]+0.014*[#   4]+0.014*[#   6]+0.014*[#   7]+
          +0.014*[#   8]+0.002*[#  10]+0.002*[#  13]+
    |psi|^2 = 0.996
==== e(  18) =    14.15772 eV ==== 
     psi = 0.352*[#  16]+0.352*[#  19]+0.044*[#  17]+0.044*[#  18]+0.044*[#  20]+
          +0.018*[#  15]+0.014*[#   2]+0.014*[#   3]+0.014*[#   4]+0.014*[#   6]+
          +0.014*[#   7]+0.014*[#   8]+0.010*[#   1]+0.010*[#   5]+0.005*[#   9]+
          +0.001*[#  10]+0.001*[#  13]+
    |psi|^2 = 0.968
==== e(  19) =    14.37585 eV ==== 
     psi = 0.357*[#  16]+0.357*[#  19]+0.052*[#  17]+0.052*[#  18]+0.052*[#  20]+
          +0.019*[#   2]+0.019*[#   3]+0.019*[#   4]+0.019*[#   6]+0.019*[#   7]+
          +0.019*[#   8]+0.005*[#  10]+0.005*[#  13]+
    |psi|^2 = 0.994
==== e(  20) =    16.99280 eV ==== 
     psi = 0.012*[#   9]+0.012*[#  15]+0.007*[#  16]+0.007*[#  19]+0.005*[#   2]+
          +0.005*[#   3]+0.005*[#   4]+0.005*[#   6]+0.005*[#   7]+0.005*[#   8]+
          +0.001*[#   1]+0.001*[#   5]+0.001*[#  17]+0.001*[#  18]+0.001*[#  20]+
    |psi|^2 = 0.075
==== e(  21) =    20.44289 eV ==== 
     psi = 0.416*[#  15]+0.346*[#   9]+0.032*[#   2]+0.032*[#   3]+0.032*[#   4]+
          +0.032*[#   6]+0.032*[#   7]+0.032*[#   8]+
    |psi|^2 = 0.956
==== e(  22) =    23.27171 eV ==== 
     psi = 
    |psi|^2 = 0.008
==== e(  23) =    24.81091 eV ==== 
     psi = 
    |psi|^2 = 0.005
==== e(  24) =    25.33255 eV ==== 
     psi = 
    |psi|^2 = 0.004

 k =   0.3750000000 -0.1250000000 -0.1250000000
==== e(   1) =    -8.13160 eV ==== 
     psi = 0.356*[#   1]+0.356*[#   5]+0.136*[#  15]+0.132*[#   9]+0.008*[#  10]+
          +0.008*[#  13]+
    |psi|^2 = 0.999
==== e(   2) =    -7.43552 eV ==== 
     psi = 0.456*[#   1]+0.456*[#   5]+0.021*[#  10]+0.021*[#  13]+0.014*[#   9]+
          +0.012*[#  16]+0.012*[#  19]+0.001*[#  15]+
    |psi|^2 = 0.997
==== e(   3) =     3.03003 eV ==== 
     psi = 0.111*[#  11]+0.111*[#  12]+0.111*[#  14]+0.069*[#   2]+0.069*[#   3]+
          +0.069*[#   4]+0.069*[#   6]+0.069*[#   7]+0.069*[#   8]+0.049*[#  10]+
          +0.049*[#  13]+0.041*[#  15]+0.041*[#   9]+0.022*[#  17]+0.022*[#  18]+
          +0.022*[#  20]+0.001*[#   1]+0.001*[#   5]+
    |psi|^2 = 0.998
==== e(   4) =     3.88822 eV ==== 
     psi = 0.158*[#  11]+0.158*[#  12]+0.158*[#  14]+0.059*[#   2]+0.059*[#   3]+
          +0.059*[#   4]+0.059*[#   6]+0.059*[#   7]+0.059*[#   8]+0.050*[#  10]+
          +0.050*[#  13]+0.016*[#  17]+0.016*[#  18]+0.016*[#  20]+0.009*[#   9]+
          +0.005*[#  15]+0.003*[#   1]+0.003*[#   5]+
    |psi|^2 = 0.993
==== e(   5) =     4.31733 eV ==== 
     psi = 0.333*[#  10]+0.333*[#  13]+0.043*[#   2]+0.043*[#   3]+0.043*[#   4]+
          +0.043*[#   6]+0.043*[#   7]+0.043*[#   8]+0.022*[#  11]+0.022*[#  12]+
          +0.022*[#  14]+0.006*[#  16]+0.006*[#  19]+
    |psi|^2 = 0.999
==== e(   6) =     4.60085 eV ==== 
     psi = 0.167*[#  10]+0.167*[#  13]+0.061*[#  11]+0.061*[#  12]+0.061*[#  14]+
          +0.059*[#   2]+0.059*[#   3]+0.059*[#   4]+0.059*[#   6]+0.059*[#   7]+
          +0.059*[#   8]+0.034*[#   9]+0.027*[#  15]+0.016*[#   1]+0.016*[#   5]+
          +0.009*[#  16]+0.009*[#  19]+0.005*[#  17]+0.005*[#  18]+0.005*[#  20]+
    |psi|^2 = 0.996
==== e(   7) =     5.22593 eV ==== 
     psi = 0.283*[#  11]+0.283*[#  12]+0.283*[#  14]+0.024*[#  10]+0.024*[#  13]+
          +0.016*[#   2]+0.016*[#   3]+0.016*[#   4]+0.016*[#   6]+0.016*[#   7]+
          +0.016*[#   8]+0.001*[#  17]+0.001*[#  18]+0.001*[#  20]+
    |psi|^2 = 0.999
==== e(   8) =     6.55559 eV ==== 
     psi = 0.109*[#  11]+0.109*[#  12]+0.109*[#  14]+0.083*[#   2]+0.083*[#   3]+
          +0.083*[#   4]+0.083*[#   6]+0.083*[#   7]+0.083*[#   8]+0.048*[#   9]+
          +0.022*[#  16]+0.022*[#  19]+0.014*[#  17]+0.014*[#  18]+0.014*[#  20]+
          +0.008*[#  10]+0.008*[#  13]+0.007*[#   1]+0.007*[#   5]+
    |psi|^2 = 0.987
==== e(   9) =     6.80877 eV ==== 
     psi = 0.099*[#   2]+0.099*[#   3]+0.099*[#   4]+0.099*[#   6]+0.099*[#   7]+
          +0.099*[#   8]+0.056*[#  10]+0.056*[#  13]+0.042*[#  11]+0.042*[#  12]+
          +0.042*[#  14]+0.031*[#  17]+0.031*[#  18]+0.031*[#  20]+0.013*[#   1]+
          +0.013*[#   5]+0.012*[#  15]+0.010*[#  16]+0.010*[#  19]+0.004*[#   9]+
    |psi|^2 = 0.987
==== e(  10) =     7.81993 eV ==== 
     psi = 0.132*[#   2]+0.132*[#   3]+0.132*[#   4]+0.132*[#   6]+0.132*[#   7]+
          +0.132*[#   8]+0.049*[#  16]+0.049*[#  19]+0.024*[#  11]+0.024*[#  12]+
          +0.024*[#  14]+0.013*[#  10]+0.013*[#  13]+
    |psi|^2 = 0.991
==== e(  11) =     7.90433 eV ==== 
     psi = 0.163*[#  11]+0.163*[#  12]+0.163*[#  14]+0.049*[#  15]+0.048*[#   2]+
          +0.048*[#   3]+0.048*[#   4]+0.048*[#   6]+0.048*[#   7]+0.048*[#   8]+
          +0.030*[#  17]+0.030*[#  18]+0.030*[#  20]+0.019*[#  10]+0.019*[#  13]+
          +0.014*[#   1]+0.014*[#   5]+0.008*[#   9]+
    |psi|^2 = 0.991
==== e(  12) =     8.96069 eV ==== 
     psi = 0.116*[#  10]+0.116*[#  13]+0.111*[#   2]+0.111*[#   3]+0.111*[#   4]+
          +0.111*[#   6]+0.111*[#   7]+0.111*[#   8]+0.021*[#  15]+0.017*[#   1]+
          +0.017*[#   5]+0.006*[#  16]+0.006*[#  19]+0.006*[#  11]+0.006*[#  12]+
          +0.006*[#  14]+
    |psi|^2 = 0.982
==== e(  13) =     9.16987 eV ==== 
     psi = 0.125*[#  10]+0.125*[#  13]+0.110*[#   2]+0.110*[#   3]+0.110*[#   4]+
          +0.110*[#   6]+0.110*[#   7]+0.110*[#   8]+0.025*[#  16]+0.025*[#  19]+
          +0.006*[#  17]+0.006*[#  18]+0.006*[#  20]+0.003*[#  11]+0.003*[#  12]+
          +0.003*[#  14]+
    |psi|^2 = 0.987
==== e(  14) =     9.89399 eV ==== 
     psi = 0.234*[#  17]+0.234*[#  18]+0.234*[#  20]+0.037*[#   2]+0.037*[#   3]+
          +0.037*[#   4]+0.037*[#   6]+0.037*[#   7]+0.037*[#   8]+0.020*[#   9]+
          +0.014*[#  11]+0.014*[#  12]+0.014*[#  14]+0.007*[#  15]+
    |psi|^2 = 0.995
==== e(  15) =    13.16320 eV ==== 
     psi = 0.257*[#  17]+0.257*[#  18]+0.257*[#  20]+0.062*[#  16]+0.062*[#  19]+
          +0.015*[#   2]+0.015*[#   3]+0.015*[#   4]+0.015*[#   6]+0.015*[#   7]+
          +0.015*[#   8]+0.004*[#   9]+0.002*[#   1]+0.002*[#   5]+0.001*[#  15]+
    |psi|^2 = 0.994
==== e(  16) =    13.36626 eV ==== 
     psi = 0.238*[#  17]+0.238*[#  18]+0.238*[#  20]+0.102*[#  16]+0.102*[#  19]+
          +0.012*[#   2]+0.012*[#   3]+0.012*[#   4]+0.012*[#   6]+0.012*[#   7]+
          +0.012*[#   8]+0.002*[#  10]+0.002*[#  13]+
    |psi|^2 = 0.995
==== e(  17) =    13.67393 eV ==== 
     psi = 0.267*[#  16]+0.267*[#  19]+0.135*[#   9]+0.054*[#   1]+0.054*[#   5]+
          +0.049*[#  15]+0.045*[#  17]+0.045*[#  18]+0.045*[#  20]+0.004*[#   2]+
          +0.004*[#   3]+0.004*[#   4]+0.004*[#   6]+0.004*[#   7]+0.004*[#   8]+
    |psi|^2 = 0.989
==== e(  18) =    14.46684 eV ==== 
     psi = 0.315*[#  16]+0.315*[#  19]+0.086*[#  17]+0.086*[#  18]+0.086*[#  20]+
          +0.017*[#   2]+0.017*[#   3]+0.017*[#   4]+0.017*[#   6]+0.017*[#   7]+
          +0.017*[#   8]+0.002*[#  10]+0.002*[#  13]+
    |psi|^2 = 0.993
==== e(  19) =    15.23656 eV ==== 
     psi = 0.191*[#  15]+0.184*[#   9]+0.103*[#  16]+0.103*[#  19]+0.055*[#   1]+
          +0.055*[#   5]+0.043*[#   2]+0.043*[#   3]+0.043*[#   4]+0.043*[#   6]+
          +0.043*[#   7]+0.043*[#   8]+0.010*[#  17]+0.010*[#  18]+0.010*[#  20]+
          +0.002*[#  10]+0.002*[#  13]+
    |psi|^2 = 0.984
==== e(  20) =    18.71952 eV ==== 
     psi = 0.036*[#   9]+0.034*[#  15]+0.006*[#   2]+0.006*[#   3]+0.006*[#   4]+
          +0.006*[#   6]+0.006*[#   7]+0.006*[#   8]+0.001*[#  16]+0.001*[#  19]+
          +0.001*[#   1]+0.001*[#   5]+
    |psi|^2 = 0.114
==== e(  21) =    20.13364 eV ==== 
     psi = 0.411*[#  15]+0.326*[#   9]+0.025*[#   2]+0.025*[#   3]+0.025*[#   4]+
          +0.025*[#   6]+0.025*[#   7]+0.025*[#   8]+0.002*[#  16]+0.002*[#  19]+
    |psi|^2 = 0.891
==== e(  22) =    21.39341 eV ==== 
     psi = 0.003*[#   2]+0.003*[#   3]+0.003*[#   4]+0.003*[#   6]+0.003*[#   7]+
          +0.003*[#   8]+0.001*[#  16]+0.001*[#  19]+
    |psi|^2 = 0.026
==== e(  23) =    23.36644 eV ==== 
     psi = 0.007*[#  15]+0.001*[#   2]+0.001*[#   3]+0.001*[#   4]+0.001*[#   6]+
          +0.001*[#   7]+0.001*[#   8]+0.001*[#  17]+0.001*[#  18]+0.001*[#  20]+
    |psi|^2 = 0.018
==== e(  24) =    25.36621 eV ==== 
     psi = 0.002*[#   2]+0.002*[#   3]+0.002*[#   4]+0.002*[#   6]+0.002*[#   7]+
          +0.002*[#   8]+0.001*[#  16]+0.001*[#  19]+
    |psi|^2 = 0.014

 k =   0.5625000000 -0.1875000000 -0.1875000000
==== e(   1) =    -7.94838 eV ==== 
     psi = 0.411*[#   1]+0.411*[#   5]+0.051*[#   9]+0.045*[#  15]+0.040*[#  10]+
          +0.040*[#  13]+
    |psi|^2 = 0.999
==== e(   2) =    -7.31042 eV ==== 
     psi = 0.447*[#   1]+0.447*[#   5]+0.021*[#  16]+0.021*[#  19]+0.021*[#  15]+
          +0.019*[#   9]+0.008*[#  10]+0.008*[#  13]+
    |psi|^2 = 0.998
==== e(   3) =     2.99704 eV ==== 
     psi = 0.208*[#  11]+0.208*[#  12]+0.208*[#  14]+0.047*[#   2]+0.047*[#   3]+
          +0.047*[#   4]+0.047*[#   6]+0.047*[#   7]+0.047*[#   8]+0.032*[#   9]+
          +0.019*[#  10]+0.019*[#  13]+0.006*[#   1]+0.006*[#   5]+0.003*[#  15]+
          +0.001*[#  17]+0.001*[#  18]+0.001*[#  20]+0.001*[#  16]+0.001*[#  19]+
    |psi|^2 = 0.998
==== e(   4) =     3.87471 eV ==== 
     psi = 0.152*[#  10]+0.152*[#  13]+0.077*[#   2]+0.077*[#   3]+0.077*[#   4]+
          +0.077*[#   6]+0.077*[#   7]+0.077*[#   8]+0.052*[#  15]+0.042*[#  11]+
          +0.042*[#  12]+0.042*[#  14]+0.021*[#   9]+0.008*[#   1]+0.008*[#   5]+
          +0.004*[#  16]+0.004*[#  19]+0.001*[#  17]+0.001*[#  18]+0.001*[#  20]+
    |psi|^2 = 0.994
==== e(   5) =     4.40020 eV ==== 
     psi = 0.338*[#  10]+0.338*[#  13]+0.049*[#   2]+0.049*[#   3]+0.049*[#   4]+
          +0.049*[#   6]+0.049*[#   7]+0.049*[#   8]+0.009*[#  11]+0.009*[#  12]+
          +0.009*[#  14]+0.001*[#  16]+0.001*[#  19]+
    |psi|^2 = 0.999
==== e(   6) =     4.75489 eV ==== 
     psi = 0.111*[#   2]+0.111*[#   3]+0.111*[#   4]+0.111*[#   6]+0.111*[#   7]+
          +0.111*[#   8]+0.041*[#  17]+0.041*[#  18]+0.041*[#  20]+0.038*[#  11]+
          +0.038*[#  12]+0.038*[#  14]+0.023*[#   9]+0.013*[#  15]+0.010*[#  10]+
          +0.010*[#  13]+0.009*[#  16]+0.009*[#  19]+0.003*[#   1]+0.003*[#   5]+
    |psi|^2 = 0.981
==== e(   7) =     5.42924 eV ==== 
     psi = 0.295*[#  11]+0.295*[#  12]+0.295*[#  14]+0.018*[#  10]+0.018*[#  13]+
          +0.012*[#   2]+0.012*[#   3]+0.012*[#   4]+0.012*[#   6]+0.012*[#   7]+
          +0.012*[#   8]+0.003*[#  16]+0.003*[#  19]+
    |psi|^2 = 0.998
==== e(   8) =     5.92135 eV ==== 
     psi = 0.116*[#   2]+0.116*[#   3]+0.116*[#   4]+0.116*[#   6]+0.116*[#   7]+
          +0.116*[#   8]+0.044*[#  10]+0.044*[#  13]+0.044*[#  15]+0.019*[#   9]+
          +0.019*[#  17]+0.019*[#  18]+0.019*[#  20]+0.016*[#  11]+0.016*[#  12]+
          +0.016*[#  14]+0.014*[#  16]+0.014*[#  19]+0.007*[#   1]+0.007*[#   5]+
    |psi|^2 = 0.991
==== e(   9) =     6.52810 eV ==== 
     psi = 0.154*[#  11]+0.154*[#  12]+0.154*[#  14]+0.077*[#  10]+0.077*[#  13]+
          +0.044*[#   2]+0.044*[#   3]+0.044*[#   4]+0.044*[#   6]+0.044*[#   7]+
          +0.044*[#   8]+0.040*[#   9]+0.019*[#   1]+0.019*[#   5]+0.009*[#  17]+
          +0.009*[#  18]+0.009*[#  20]+0.002*[#  16]+0.002*[#  19]+
    |psi|^2 = 0.990
==== e(  10) =     7.34189 eV ==== 
     psi = 0.132*[#   2]+0.132*[#   3]+0.132*[#   4]+0.132*[#   6]+0.132*[#   7]+
          +0.132*[#   8]+0.054*[#  16]+0.054*[#  19]+0.021*[#  11]+0.021*[#  12]+
          +0.021*[#  14]+0.010*[#  10]+0.010*[#  13]+0.002*[#  17]+0.002*[#  18]+
          +0.002*[#  20]+
    |psi|^2 = 0.989
==== e(  11) =     7.92609 eV ==== 
     psi = 0.185*[#  11]+0.185*[#  12]+0.185*[#  14]+0.058*[#   2]+0.058*[#   3]+
          +0.058*[#   4]+0.058*[#   6]+0.058*[#   7]+0.058*[#   8]+0.026*[#   9]+
          +0.012*[#  17]+0.012*[#  18]+0.012*[#  20]+0.004*[#  15]+0.002*[#  16]+
          +0.002*[#  19]+0.001*[#   1]+0.001*[#   5]+0.001*[#  10]+0.001*[#  13]+
    |psi|^2 = 0.981
==== e(  12) =     8.81758 eV ==== 
     psi = 0.138*[#  10]+0.138*[#  13]+0.086*[#   2]+0.086*[#   3]+0.086*[#   4]+
          +0.086*[#   6]+0.086*[#   7]+0.086*[#   8]+0.032*[#  15]+0.024*[#   1]+
          +0.024*[#   5]+0.015*[#  11]+0.015*[#  12]+0.015*[#  14]+0.013*[#  16]+
          +0.013*[#  19]+0.013*[#  17]+0.013*[#  18]+0.013*[#  20]+
    |psi|^2 = 0.982
==== e(  13) =     9.36488 eV ==== 
     psi = 0.130*[#  10]+0.130*[#  13]+0.113*[#   2]+0.113*[#   3]+0.113*[#   4]+
          +0.113*[#   6]+0.113*[#   7]+0.113*[#   8]+0.008*[#  11]+0.008*[#  12]+
          +0.008*[#  14]+0.006*[#  16]+0.006*[#  19]+0.002*[#  17]+0.002*[#  18]+
          +0.002*[#  20]+
    |psi|^2 = 0.982
==== e(  14) =     9.74662 eV ==== 
     psi = 0.260*[#  17]+0.260*[#  18]+0.260*[#  20]+0.030*[#   2]+0.030*[#   3]+
          +0.030*[#   4]+0.030*[#   6]+0.030*[#   7]+0.030*[#   8]+0.005*[#  11]+
          +0.005*[#  12]+0.005*[#  14]+0.005*[#   9]+0.003*[#  10]+0.003*[#  13]+
          +0.002*[#  16]+0.002*[#  19]+
    |psi|^2 = 0.992
==== e(  15) =    13.17911 eV ==== 
     psi = 0.266*[#  17]+0.266*[#  18]+0.266*[#  20]+0.048*[#  16]+0.048*[#  19]+
          +0.015*[#   2]+0.015*[#   3]+0.015*[#   4]+0.015*[#   6]+0.015*[#   7]+
          +0.015*[#   8]+0.006*[#  15]+0.002*[#   9]+0.002*[#   1]+0.002*[#   5]+
    |psi|^2 = 0.996
==== e(  16) =    13.41386 eV ==== 
     psi = 0.210*[#  17]+0.210*[#  18]+0.210*[#  20]+0.164*[#  16]+0.164*[#  19]+
          +0.006*[#   2]+0.006*[#   3]+0.006*[#   4]+0.006*[#   6]+0.006*[#   7]+
          +0.006*[#   8]+
    |psi|^2 = 0.996
==== e(  17) =    14.03755 eV ==== 
     psi = 0.346*[#  16]+0.346*[#  19]+0.064*[#   9]+0.039*[#  17]+0.039*[#  18]+
          +0.039*[#  20]+0.034*[#   1]+0.034*[#   5]+0.013*[#  15]+0.005*[#   2]+
          +0.005*[#   3]+0.005*[#   4]+0.005*[#   6]+0.005*[#   7]+0.005*[#   8]+
    |psi|^2 = 0.983
==== e(  18) =    14.57813 eV ==== 
     psi = 0.269*[#  16]+0.269*[#  19]+0.119*[#  17]+0.119*[#  18]+0.119*[#  20]+
          +0.016*[#   2]+0.016*[#   3]+0.016*[#   4]+0.016*[#   6]+0.016*[#   7]+
          +0.016*[#   8]+
    |psi|^2 = 0.991
==== e(  19) =    16.80071 eV ==== 
     psi = 0.322*[#   9]+0.237*[#  15]+0.040*[#   2]+0.040*[#   3]+0.040*[#   4]+
          +0.040*[#   6]+0.040*[#   7]+0.040*[#   8]+0.034*[#  16]+0.034*[#  19]+
          +0.029*[#   1]+0.029*[#   5]+0.003*[#  17]+0.003*[#  18]+0.003*[#  20]+
          +0.001*[#  10]+0.001*[#  13]+
    |psi|^2 = 0.937
==== e(  20) =    19.27914 eV ==== 
     psi = 0.155*[#  15]+0.132*[#   9]+0.006*[#   2]+0.006*[#   3]+0.006*[#   4]+
          +0.006*[#   6]+0.006*[#   7]+0.006*[#   8]+0.002*[#   1]+0.002*[#   5]+
          +0.001*[#  10]+0.001*[#  13]+
    |psi|^2 = 0.332
==== e(  21) =    19.94398 eV ==== 
     psi = 0.281*[#  15]+0.232*[#   9]+0.018*[#   2]+0.018*[#   3]+0.018*[#   4]+
          +0.018*[#   6]+0.018*[#   7]+0.018*[#   8]+0.002*[#  16]+0.002*[#  19]+
    |psi|^2 = 0.627
==== e(  22) =    20.86554 eV ==== 
     psi = 0.008*[#  15]+0.005*[#   2]+0.005*[#   3]+0.005*[#   4]+0.005*[#   6]+
          +0.005*[#   7]+0.005*[#   8]+0.002*[#   9]+
    |psi|^2 = 0.044
==== e(  23) =    21.73322 eV ==== 
     psi = 0.074*[#  15]+0.005*[#   2]+0.005*[#   3]+0.005*[#   4]+0.005*[#   6]+
          +0.005*[#   7]+0.005*[#   8]+0.002*[#   1]+0.002*[#   5]+
    |psi|^2 = 0.109
==== e(  24) =    23.41790 eV ==== 
     psi = 
    |psi|^2 = 0.004

 k =  -0.7500000000  0.2500000000  0.2500000000
==== e(   1) =    -7.91636 eV ==== 
     psi = 0.429*[#   1]+0.429*[#   5]+0.056*[#  10]+0.056*[#  13]+0.027*[#   9]+
    |psi|^2 = 0.998
==== e(   2) =    -7.19819 eV ==== 
     psi = 0.457*[#   1]+0.457*[#   5]+0.028*[#  15]+0.026*[#  16]+0.026*[#  19]+
    |psi|^2 = 0.997
==== e(   3) =     2.75346 eV ==== 
     psi = 0.210*[#  11]+0.210*[#  12]+0.210*[#  14]+0.052*[#   2]+0.052*[#   3]+
          +0.052*[#   4]+0.052*[#   6]+0.052*[#   7]+0.052*[#   8]+0.046*[#   9]+
          +0.004*[#   1]+0.004*[#   5]+0.002*[#  10]+0.002*[#  13]+
    |psi|^2 = 0.999
==== e(   4) =     3.94200 eV ==== 
     psi = 0.183*[#  10]+0.183*[#  13]+0.074*[#   2]+0.074*[#   3]+0.074*[#   4]+
          +0.074*[#   6]+0.074*[#   7]+0.074*[#   8]+0.044*[#  11]+0.044*[#  12]+
          +0.044*[#  14]+0.026*[#   9]+0.012*[#   1]+0.012*[#   5]+
    |psi|^2 = 0.988
==== e(   5) =     4.35403 eV ==== 
     psi = 0.312*[#  10]+0.312*[#  13]+0.050*[#   2]+0.050*[#   3]+0.050*[#   4]+
          +0.050*[#   6]+0.050*[#   7]+0.050*[#   8]+0.026*[#  11]+0.026*[#  12]+
          +0.026*[#  14]+
    |psi|^2 = 0.999
==== e(   6) =     4.68773 eV ==== 
     psi = 0.126*[#   2]+0.126*[#   3]+0.126*[#   4]+0.126*[#   6]+0.126*[#   7]+
          +0.126*[#   8]+0.109*[#  15]+0.034*[#  17]+0.034*[#  18]+0.034*[#  20]+
          +0.007*[#  16]+0.007*[#  19]+0.003*[#   1]+0.003*[#   5]+
    |psi|^2 = 0.988
==== e(   7) =     5.70367 eV ==== 
     psi = 0.297*[#  11]+0.297*[#  12]+0.297*[#  14]+0.053*[#  10]+0.053*[#  13]+
    |psi|^2 = 0.998
==== e(   8) =     6.08029 eV ==== 
     psi = 0.133*[#   2]+0.133*[#   3]+0.133*[#   4]+0.133*[#   6]+0.133*[#   7]+
          +0.133*[#   8]+0.035*[#  17]+0.035*[#  18]+0.035*[#  20]+0.028*[#  16]+
          +0.028*[#  19]+0.015*[#  15]+
    |psi|^2 = 0.974
==== e(   9) =     6.49710 eV ==== 
     psi = 0.172*[#  11]+0.172*[#  12]+0.172*[#  14]+0.100*[#  10]+0.100*[#  13]+
          +0.035*[#   2]+0.035*[#   3]+0.035*[#   4]+0.035*[#   6]+0.035*[#   7]+
          +0.035*[#   8]+0.022*[#   9]+0.021*[#   1]+0.021*[#   5]+
    |psi|^2 = 0.990
==== e(  10) =     7.04428 eV ==== 
     psi = 0.144*[#   2]+0.144*[#   3]+0.144*[#   4]+0.144*[#   6]+0.144*[#   7]+
          +0.144*[#   8]+0.057*[#  16]+0.057*[#  19]+0.003*[#  17]+0.003*[#  18]+
          +0.003*[#  20]+
    |psi|^2 = 0.989
==== e(  11) =     7.60225 eV ==== 
     psi = 0.203*[#  11]+0.203*[#  12]+0.203*[#  14]+0.073*[#   9]+0.047*[#   2]+
          +0.047*[#   3]+0.047*[#   4]+0.047*[#   6]+0.047*[#   7]+0.047*[#   8]+
          +0.015*[#  10]+0.015*[#  13]+
    |psi|^2 = 0.994
==== e(  12) =     9.01343 eV ==== 
     psi = 0.139*[#  10]+0.139*[#  13]+0.090*[#   2]+0.090*[#   3]+0.090*[#   4]+
          +0.090*[#   6]+0.090*[#   7]+0.090*[#   8]+0.035*[#  11]+0.035*[#  12]+
          +0.035*[#  14]+0.021*[#   1]+0.021*[#   5]+
    |psi|^2 = 0.968
==== e(  13) =     9.44092 eV ==== 
     psi = 0.132*[#  10]+0.132*[#  13]+0.114*[#   2]+0.114*[#   3]+0.114*[#   4]+
          +0.114*[#   6]+0.114*[#   7]+0.114*[#   8]+0.010*[#  11]+0.010*[#  12]+
          +0.010*[#  14]+
    |psi|^2 = 0.980
==== e(  14) =     9.63075 eV ==== 
     psi = 0.288*[#  17]+0.288*[#  18]+0.288*[#  20]+0.019*[#   2]+0.019*[#   3]+
          +0.019*[#   4]+0.019*[#   6]+0.019*[#   7]+0.019*[#   8]+0.007*[#  16]+
          +0.007*[#  19]+0.003*[#  15]+
    |psi|^2 = 0.995
==== e(  15) =    13.18965 eV ==== 
     psi = 0.269*[#  17]+0.269*[#  18]+0.269*[#  20]+0.047*[#  16]+0.047*[#  19]+
          +0.013*[#   2]+0.013*[#   3]+0.013*[#   4]+0.013*[#   6]+0.013*[#   7]+
          +0.013*[#   8]+0.010*[#  15]+0.002*[#   1]+0.002*[#   5]+
    |psi|^2 = 0.996
==== e(  16) =    13.43337 eV ==== 
     psi = 0.200*[#  17]+0.200*[#  18]+0.200*[#  20]+0.189*[#  16]+0.189*[#  19]+
          +0.003*[#   2]+0.003*[#   3]+0.003*[#   4]+0.003*[#   6]+0.003*[#   7]+
          +0.003*[#   8]+
    |psi|^2 = 0.996
==== e(  17) =    14.25626 eV ==== 
     psi = 0.375*[#  16]+0.375*[#  19]+0.037*[#  17]+0.037*[#  18]+0.037*[#  20]+
          +0.027*[#   1]+0.027*[#   5]+0.008*[#   2]+0.008*[#   3]+0.008*[#   4]+
          +0.008*[#   6]+0.008*[#   7]+0.008*[#   8]+0.006*[#  15]+
    |psi|^2 = 0.967
==== e(  18) =    14.62566 eV ==== 
     psi = 0.251*[#  16]+0.251*[#  19]+0.131*[#  17]+0.131*[#  18]+0.131*[#  20]+
          +0.016*[#   2]+0.016*[#   3]+0.016*[#   4]+0.016*[#   6]+0.016*[#   7]+
          +0.016*[#   8]+
    |psi|^2 = 0.990
==== e(  19) =    17.87089 eV ==== 
     psi = 0.648*[#   9]+0.022*[#   2]+0.022*[#   3]+0.022*[#   4]+0.022*[#   6]+
          +0.022*[#   7]+0.022*[#   8]+0.011*[#   1]+0.011*[#   5]+
    |psi|^2 = 0.802
==== e(  20) =    18.20756 eV ==== 
     psi = 0.470*[#  15]+0.018*[#   2]+0.018*[#   3]+0.018*[#   4]+0.018*[#   6]+
          +0.018*[#   7]+0.018*[#   8]+0.007*[#  16]+0.007*[#  19]+0.005*[#   1]+
          +0.005*[#   5]+0.002*[#  17]+0.002*[#  18]+0.002*[#  20]+
    |psi|^2 = 0.610
==== e(  21) =    20.17377 eV ==== 
     psi = 0.135*[#   9]+0.009*[#   2]+0.009*[#   3]+0.009*[#   4]+0.009*[#   6]+
          +0.009*[#   7]+0.009*[#   8]+
    |psi|^2 = 0.192
==== e(  22) =    20.67756 eV ==== 
     psi = 0.328*[#  15]+0.011*[#   2]+0.011*[#   3]+0.011*[#   4]+0.011*[#   6]+
          +0.011*[#   7]+0.011*[#   8]+0.003*[#   1]+0.003*[#   5]+0.001*[#  16]+
          +0.001*[#  19]+
    |psi|^2 = 0.400
==== e(  23) =    21.90852 eV ==== 
     psi = 0.009*[#   9]+0.003*[#   2]+0.003*[#   3]+0.003*[#   4]+0.003*[#   6]+
          +0.003*[#   7]+0.003*[#   8]+
    |psi|^2 = 0.030
==== e(  24) =    22.26894 eV ==== 
     psi = 0.018*[#  15]+0.003*[#   2]+0.003*[#   3]+0.003*[#   4]+0.003*[#   6]+
          +0.003*[#   7]+0.003*[#   8]+0.001*[#  17]+0.001*[#  18]+0.001*[#  20]+
    |psi|^2 = 0.039

 k =   0.1250000000  0.1250000000 -0.1250000000
==== e(   1) =    -8.40995 eV ==== 
     psi = 0.312*[#   1]+0.312*[#   5]+0.192*[#   9]+0.184*[#  15]+
    |psi|^2 = 1.000
==== e(   2) =    -7.43022 eV ==== 
     psi = 0.476*[#   1]+0.476*[#   5]+0.009*[#  10]+0.009*[#  13]+0.007*[#  15]+
          +0.006*[#   9]+0.004*[#  16]+0.004*[#  19]+
    |psi|^2 = 0.995
==== e(   3) =     2.33466 eV ==== 
     psi = 0.087*[#  11]+0.087*[#  12]+0.087*[#  14]+0.080*[#   2]+0.080*[#   3]+
          +0.080*[#   4]+0.080*[#   6]+0.080*[#   7]+0.080*[#   8]+0.070*[#   9]+
          +0.057*[#  15]+0.042*[#  17]+0.042*[#  18]+0.042*[#  20]+0.002*[#   1]+
          +0.002*[#   5]+
    |psi|^2 = 0.999
==== e(   4) =     3.80358 eV ==== 
     psi = 0.208*[#  10]+0.208*[#  13]+0.116*[#  11]+0.116*[#  12]+0.116*[#  14]+
          +0.036*[#   2]+0.036*[#   3]+0.036*[#   4]+0.036*[#   6]+0.036*[#   7]+
          +0.036*[#   8]+0.004*[#  16]+0.004*[#  19]+0.002*[#   1]+0.002*[#   5]+
    |psi|^2 = 0.996
==== e(   5) =     4.02516 eV ==== 
     psi = 0.264*[#  10]+0.264*[#  13]+0.083*[#  11]+0.083*[#  12]+0.083*[#  14]+
          +0.035*[#   2]+0.035*[#   3]+0.035*[#   4]+0.035*[#   6]+0.035*[#   7]+
          +0.035*[#   8]+0.005*[#  16]+0.005*[#  19]+
    |psi|^2 = 0.999
==== e(   6) =     5.35065 eV ==== 
     psi = 0.193*[#  11]+0.193*[#  12]+0.193*[#  14]+0.139*[#  10]+0.139*[#  13]+
          +0.020*[#   2]+0.020*[#   3]+0.020*[#   4]+0.020*[#   6]+0.020*[#   7]+
          +0.020*[#   8]+0.005*[#   1]+0.005*[#   5]+0.003*[#  17]+0.003*[#  18]+
          +0.003*[#  20]+0.002*[#   9]+
    |psi|^2 = 0.997
==== e(   7) =     5.42981 eV ==== 
     psi = 0.237*[#  11]+0.237*[#  12]+0.237*[#  14]+0.107*[#  10]+0.107*[#  13]+
          +0.012*[#   2]+0.012*[#   3]+0.012*[#   4]+0.012*[#   6]+0.012*[#   7]+
          +0.012*[#   8]+0.001*[#  17]+0.001*[#  18]+0.001*[#  20]+
    |psi|^2 = 0.999
==== e(   8) =     7.06012 eV ==== 
     psi = 0.169*[#  11]+0.169*[#  12]+0.169*[#  14]+0.069*[#  17]+0.069*[#  18]+
          +0.069*[#  20]+0.042*[#   2]+0.042*[#   3]+0.042*[#   4]+0.042*[#   6]+
          +0.042*[#   7]+0.042*[#   8]+0.014*[#   9]+0.005*[#  16]+0.005*[#  19]+
          +0.002*[#   1]+0.002*[#   5]+0.001*[#  15]+0.001*[#  10]+0.001*[#  13]+
    |psi|^2 = 0.996
==== e(   9) =     7.45158 eV ==== 
     psi = 0.130*[#   2]+0.130*[#   3]+0.130*[#   4]+0.130*[#   6]+0.130*[#   7]+
          +0.130*[#   8]+0.029*[#   9]+0.027*[#  15]+0.021*[#   1]+0.021*[#   5]+
          +0.018*[#  16]+0.018*[#  19]+0.017*[#  10]+0.017*[#  13]+0.008*[#  11]+
          +0.008*[#  12]+0.008*[#  14]+0.007*[#  17]+0.007*[#  18]+0.007*[#  20]+
    |psi|^2 = 0.992
==== e(  10) =     7.88399 eV ==== 
     psi = 0.104*[#   2]+0.104*[#   3]+0.104*[#   4]+0.104*[#   6]+0.104*[#   7]+
          +0.104*[#   8]+0.062*[#  11]+0.062*[#  12]+0.062*[#  14]+0.034*[#  16]+
          +0.034*[#  19]+0.028*[#  15]+0.017*[#  10]+0.017*[#  13]+0.010*[#  17]+
          +0.010*[#  18]+0.010*[#  20]+0.009*[#   1]+0.009*[#   5]+0.002*[#   9]+
    |psi|^2 = 0.991
==== e(  11) =     7.90857 eV ==== 
     psi = 0.136*[#   2]+0.136*[#   3]+0.136*[#   4]+0.136*[#   6]+0.136*[#   7]+
          +0.136*[#   8]+0.057*[#  16]+0.057*[#  19]+0.012*[#  11]+0.012*[#  12]+
          +0.012*[#  14]+0.011*[#  10]+0.011*[#  13]+0.001*[#  17]+0.001*[#  18]+
          +0.001*[#  20]+
    |psi|^2 = 0.993
==== e(  12) =     9.19590 eV ==== 
     psi = 0.119*[#   2]+0.119*[#   3]+0.119*[#   4]+0.119*[#   6]+0.119*[#   7]+
          +0.119*[#   8]+0.103*[#  10]+0.103*[#  13]+0.015*[#  16]+0.015*[#  19]+
          +0.007*[#  11]+0.007*[#  12]+0.007*[#  14]+0.003*[#  17]+0.003*[#  18]+
          +0.003*[#  20]+0.002*[#   1]+0.002*[#   5]+
    |psi|^2 = 0.985
==== e(  13) =     9.23462 eV ==== 
     psi = 0.116*[#   2]+0.116*[#   3]+0.116*[#   4]+0.116*[#   6]+0.116*[#   7]+
          +0.116*[#   8]+0.112*[#  10]+0.112*[#  13]+0.024*[#  16]+0.024*[#  19]+
          +0.007*[#  17]+0.007*[#  18]+0.007*[#  20]+
    |psi|^2 = 0.990
==== e(  14) =     9.99328 eV ==== 
     psi = 0.211*[#  17]+0.211*[#  18]+0.211*[#  20]+0.041*[#   2]+0.041*[#   3]+
          +0.041*[#   4]+0.041*[#   6]+0.041*[#   7]+0.041*[#   8]+0.030*[#   9]+
          +0.023*[#  11]+0.023*[#  12]+0.023*[#  14]+0.019*[#  15]+
    |psi|^2 = 0.998
==== e(  15) =    12.93793 eV ==== 
     psi = 0.234*[#   9]+0.188*[#  15]+0.122*[#   1]+0.122*[#   5]+0.070*[#  17]+
          +0.070*[#  18]+0.070*[#  20]+0.017*[#   2]+0.017*[#   3]+0.017*[#   4]+
          +0.017*[#   6]+0.017*[#   7]+0.017*[#   8]+0.004*[#  16]+0.004*[#  19]+
          +0.001*[#  11]+0.001*[#  12]+0.001*[#  14]+
    |psi|^2 = 0.993
==== e(  16) =    13.29865 eV ==== 
     psi = 0.262*[#  17]+0.262*[#  18]+0.262*[#  20]+0.057*[#  16]+0.057*[#  19]+
          +0.015*[#   2]+0.015*[#   3]+0.015*[#   4]+0.015*[#   6]+0.015*[#   7]+
          +0.015*[#   8]+0.002*[#  10]+0.002*[#  13]+
    |psi|^2 = 0.995
==== e(  17) =    13.31095 eV ==== 
     psi = 0.205*[#  17]+0.205*[#  18]+0.205*[#  20]+0.060*[#   9]+0.052*[#  15]+
          +0.036*[#  16]+0.036*[#  19]+0.033*[#   1]+0.033*[#   5]+0.021*[#   2]+
          +0.021*[#   3]+0.021*[#   4]+0.021*[#   6]+0.021*[#   7]+0.021*[#   8]+
          +0.001*[#  10]+0.001*[#  13]+
    |psi|^2 = 0.995
==== e(  18) =    14.13817 eV ==== 
     psi = 0.369*[#  16]+0.369*[#  19]+0.043*[#  17]+0.043*[#  18]+0.043*[#  20]+
          +0.013*[#   2]+0.013*[#   3]+0.013*[#   4]+0.013*[#   6]+0.013*[#   7]+
          +0.013*[#   8]+0.007*[#   1]+0.007*[#   5]+0.003*[#   9]+0.002*[#  10]+
          +0.002*[#  13]+
    |psi|^2 = 0.964
==== e(  19) =    14.31038 eV ==== 
     psi = 0.355*[#  16]+0.355*[#  19]+0.060*[#  17]+0.060*[#  18]+0.060*[#  20]+
          +0.016*[#   2]+0.016*[#   3]+0.016*[#   4]+0.016*[#   6]+0.016*[#   7]+
          +0.016*[#   8]+0.003*[#  10]+0.003*[#  13]+
    |psi|^2 = 0.993
==== e(  20) =    16.97875 eV ==== 
     psi = 0.065*[#  15]+0.055*[#   9]+0.009*[#  16]+0.009*[#  19]+0.008*[#   2]+
          +0.008*[#   3]+0.008*[#   4]+0.008*[#   6]+0.008*[#   7]+0.008*[#   8]+
          +0.003*[#   1]+0.003*[#   5]+0.001*[#  17]+0.001*[#  18]+0.001*[#  20]+
    |psi|^2 = 0.198
==== e(  21) =    20.47265 eV ==== 
     psi = 0.363*[#  15]+0.298*[#   9]+0.029*[#   2]+0.029*[#   3]+0.029*[#   4]+
          +0.029*[#   6]+0.029*[#   7]+0.029*[#   8]+0.002*[#   1]+0.002*[#   5]+
    |psi|^2 = 0.838
==== e(  22) =    23.35879 eV ==== 
     psi = 
    |psi|^2 = 0.005
==== e(  23) =    24.84491 eV ==== 
     psi = 
    |psi|^2 = 0.008
==== e(  24) =    25.02642 eV ==== 
     psi = 
    |psi|^2 = 0.005

 k =   0.3125000000  0.0625000000 -0.1875000000
==== e(   1) =    -8.17655 eV ==== 
     psi = 0.344*[#   1]+0.344*[#   5]+0.154*[#  15]+0.151*[#   9]+0.003*[#  10]+
          +0.003*[#  13]+
    |psi|^2 = 1.000
==== e(   2) =    -7.47897 eV ==== 
     psi = 0.457*[#   1]+0.457*[#   5]+0.021*[#  10]+0.021*[#  13]+0.015*[#   9]+
          +0.010*[#  16]+0.010*[#  19]+0.004*[#  15]+
    |psi|^2 = 0.997
==== e(   3) =     2.98846 eV ==== 
     psi = 0.087*[#  11]+0.087*[#  12]+0.087*[#  14]+0.081*[#   2]+0.081*[#   3]+
          +0.081*[#   4]+0.081*[#   6]+0.081*[#   7]+0.081*[#   8]+0.055*[#   9]+
          +0.052*[#  15]+0.033*[#  17]+0.033*[#  18]+0.033*[#  20]+0.022*[#  10]+
          +0.022*[#  13]+0.001*[#   1]+0.001*[#   5]+
    |psi|^2 = 0.998
==== e(   4) =     3.72905 eV ==== 
     psi = 0.155*[#  11]+0.155*[#  12]+0.155*[#  14]+0.130*[#  10]+0.130*[#  13]+
          +0.040*[#   2]+0.040*[#   3]+0.040*[#   4]+0.040*[#   6]+0.040*[#   7]+
          +0.040*[#   8]+0.005*[#   1]+0.005*[#   5]+0.005*[#  17]+0.005*[#  18]+
          +0.005*[#  20]+0.004*[#   9]+
    |psi|^2 = 0.995
==== e(   5) =     4.25470 eV ==== 
     psi = 0.310*[#  10]+0.310*[#  13]+0.045*[#   2]+0.045*[#   3]+0.045*[#   4]+
          +0.045*[#   6]+0.045*[#   7]+0.045*[#   8]+0.028*[#  11]+0.028*[#  12]+
          +0.028*[#  14]+0.005*[#   9]+0.004*[#  16]+0.004*[#  19]+0.004*[#  17]+
          +0.004*[#  18]+0.004*[#  20]+
    |psi|^2 = 0.999
==== e(   6) =     4.95401 eV ==== 
     psi = 0.224*[#  11]+0.224*[#  12]+0.224*[#  14]+0.037*[#   2]+0.037*[#   3]+
          +0.037*[#   4]+0.037*[#   6]+0.037*[#   7]+0.037*[#   8]+0.023*[#  10]+
          +0.023*[#  13]+0.016*[#  15]+0.012*[#   9]+0.008*[#   1]+0.008*[#   5]+
          +0.004*[#  16]+0.004*[#  19]+0.002*[#  17]+0.002*[#  18]+0.002*[#  20]+
    |psi|^2 = 0.998
==== e(   7) =     5.16269 eV ==== 
     psi = 0.185*[#  10]+0.185*[#  13]+0.142*[#  11]+0.142*[#  12]+0.142*[#  14]+
          +0.028*[#   2]+0.028*[#   3]+0.028*[#   4]+0.028*[#   6]+0.028*[#   7]+
          +0.028*[#   8]+0.009*[#   1]+0.009*[#   5]+0.003*[#  16]+0.003*[#  19]+
          +0.002*[#  17]+0.002*[#  18]+0.002*[#  20]+
    |psi|^2 = 0.996
==== e(   8) =     6.59487 eV ==== 
     psi = 0.114*[#  11]+0.114*[#  12]+0.114*[#  14]+0.076*[#   2]+0.076*[#   3]+
          +0.076*[#   4]+0.076*[#   6]+0.076*[#   7]+0.076*[#   8]+0.056*[#   9]+
          +0.018*[#  16]+0.018*[#  19]+0.015*[#  17]+0.015*[#  18]+0.015*[#  20]+
          +0.014*[#   1]+0.014*[#   5]+0.011*[#  10]+0.011*[#  13]+0.007*[#  15]+
    |psi|^2 = 0.994
==== e(   9) =     6.94334 eV ==== 
     psi = 0.111*[#   2]+0.111*[#   3]+0.111*[#   4]+0.111*[#   6]+0.111*[#   7]+
          +0.111*[#   8]+0.043*[#  11]+0.043*[#  12]+0.043*[#  14]+0.037*[#  17]+
          +0.037*[#  18]+0.037*[#  20]+0.034*[#  16]+0.034*[#  19]+0.005*[#  10]+
          +0.005*[#  13]+
    |psi|^2 = 0.985
==== e(  10) =     7.70570 eV ==== 
     psi = 0.134*[#  11]+0.134*[#  12]+0.134*[#  14]+0.065*[#   2]+0.065*[#   3]+
          +0.065*[#   4]+0.065*[#   6]+0.065*[#   7]+0.065*[#   8]+0.051*[#  15]+
          +0.022*[#  17]+0.022*[#  18]+0.022*[#  20]+0.018*[#  10]+0.018*[#  13]+
          +0.013*[#   1]+0.013*[#   5]+0.008*[#  16]+0.008*[#  19]+0.004*[#   9]+
    |psi|^2 = 0.991
==== e(  11) =     8.08430 eV ==== 
     psi = 0.125*[#   2]+0.125*[#   3]+0.125*[#   4]+0.125*[#   6]+0.125*[#   7]+
          +0.125*[#   8]+0.042*[#  11]+0.042*[#  12]+0.042*[#  14]+0.025*[#  16]+
          +0.025*[#  19]+0.018*[#  10]+0.018*[#  13]+0.008*[#  17]+0.008*[#  18]+
          +0.008*[#  20]+
    |psi|^2 = 0.988
==== e(  12) =     8.91641 eV ==== 
     psi = 0.129*[#  10]+0.129*[#  13]+0.101*[#   2]+0.101*[#   3]+0.101*[#   4]+
          +0.101*[#   6]+0.101*[#   7]+0.101*[#   8]+0.028*[#  16]+0.028*[#  19]+
          +0.022*[#  15]+0.009*[#   1]+0.009*[#   5]+0.006*[#  17]+0.006*[#  18]+
          +0.006*[#  20]+0.003*[#  11]+0.003*[#  12]+0.003*[#  14]+
    |psi|^2 = 0.988
==== e(  13) =     9.30032 eV ==== 
     psi = 0.115*[#   2]+0.115*[#   3]+0.115*[#   4]+0.115*[#   6]+0.115*[#   7]+
          +0.115*[#   8]+0.112*[#  10]+0.112*[#  13]+0.011*[#  11]+0.011*[#  12]+
          +0.011*[#  14]+0.008*[#   1]+0.008*[#   5]+0.007*[#  16]+0.007*[#  19]+
          +0.003*[#  17]+0.003*[#  18]+0.003*[#  20]+0.001*[#   9]+
    |psi|^2 = 0.984
==== e(  14) =     9.93426 eV ==== 
     psi = 0.224*[#  17]+0.224*[#  18]+0.224*[#  20]+0.041*[#   2]+0.041*[#   3]+
          +0.041*[#   4]+0.041*[#   6]+0.041*[#   7]+0.041*[#   8]+0.023*[#   9]+
          +0.013*[#  11]+0.013*[#  12]+0.013*[#  14]+0.008*[#  15]+0.002*[#  10]+
          +0.002*[#  13]+
    |psi|^2 = 0.996
==== e(  15) =    13.11638 eV ==== 
     psi = 0.234*[#  17]+0.234*[#  18]+0.234*[#  20]+0.078*[#  16]+0.078*[#  19]+
          +0.026*[#   9]+0.013*[#   2]+0.013*[#   3]+0.013*[#   4]+0.013*[#   6]+
          +0.013*[#   7]+0.013*[#   8]+0.010*[#   1]+0.010*[#   5]+0.007*[#  15]+
    |psi|^2 = 0.993
==== e(  16) =    13.32322 eV ==== 
     psi = 0.242*[#  17]+0.242*[#  18]+0.242*[#  20]+0.094*[#  16]+0.094*[#  19]+
          +0.012*[#   2]+0.012*[#   3]+0.012*[#   4]+0.012*[#   6]+0.012*[#   7]+
          +0.012*[#   8]+0.002*[#  15]+0.002*[#  10]+0.002*[#  13]+
    |psi|^2 = 0.993
==== e(  17) =    13.84459 eV ==== 
     psi = 0.173*[#  16]+0.173*[#  19]+0.143*[#   9]+0.084*[#  17]+0.084*[#  18]+
          +0.084*[#  20]+0.066*[#  15]+0.053*[#   1]+0.053*[#   5]+0.012*[#   2]+
          +0.012*[#   3]+0.012*[#   4]+0.012*[#   6]+0.012*[#   7]+0.012*[#   8]+
          +0.001*[#  10]+0.001*[#  13]+
    |psi|^2 = 0.992
==== e(  18) =    14.26878 eV ==== 
     psi = 0.348*[#  16]+0.348*[#  19]+0.047*[#  17]+0.047*[#  18]+0.047*[#  20]+
          +0.015*[#   2]+0.015*[#   3]+0.015*[#   4]+0.015*[#   6]+0.015*[#   7]+
          +0.015*[#   8]+0.014*[#  15]+0.013*[#   9]+0.011*[#   1]+0.011*[#   5]+
          +0.002*[#  10]+0.002*[#  13]+
    |psi|^2 = 0.983
==== e(  19) =    14.80268 eV ==== 
     psi = 0.152*[#  16]+0.152*[#  19]+0.147*[#  15]+0.131*[#   9]+0.048*[#   1]+
          +0.048*[#   5]+0.036*[#   2]+0.036*[#   3]+0.036*[#   4]+0.036*[#   6]+
          +0.036*[#   7]+0.036*[#   8]+0.030*[#  17]+0.030*[#  18]+0.030*[#  20]+
    |psi|^2 = 0.987
==== e(  20) =    18.14259 eV ==== 
     psi = 0.153*[#  15]+0.128*[#   9]+0.014*[#   2]+0.014*[#   3]+0.014*[#   4]+
          +0.014*[#   6]+0.014*[#   7]+0.014*[#   8]+0.004*[#  16]+0.004*[#  19]+
          +0.003*[#   1]+0.003*[#   5]+
    |psi|^2 = 0.380
==== e(  21) =    20.36004 eV ==== 
     psi = 0.284*[#  15]+0.224*[#   9]+0.020*[#   2]+0.020*[#   3]+0.020*[#   4]+
          +0.020*[#   6]+0.020*[#   7]+0.020*[#   8]+0.002*[#   1]+0.002*[#   5]+
          +0.001*[#  16]+0.001*[#  19]+
    |psi|^2 = 0.635
==== e(  22) =    22.11931 eV ==== 
     psi = 0.002*[#   2]+0.002*[#   3]+0.002*[#   4]+0.002*[#   6]+0.002*[#   7]+
          +0.002*[#   8]+0.001*[#  16]+0.001*[#  19]+
    |psi|^2 = 0.018
==== e(  23) =    23.62015 eV ==== 
     psi = 0.002*[#  15]+0.001*[#  17]+0.001*[#  18]+0.001*[#  20]+
    |psi|^2 = 0.012
==== e(  24) =    25.11810 eV ==== 
     psi = 0.002*[#   9]+0.001*[#   2]+0.001*[#   3]+0.001*[#   4]+0.001*[#   6]+
          +0.001*[#   7]+0.001*[#   8]+0.001*[#  16]+0.001*[#  19]+
    |psi|^2 = 0.015

 k =   0.5000000000  0.0000000000 -0.2500000000
==== e(   1) =    -7.93652 eV ==== 
     psi = 0.396*[#   1]+0.396*[#   5]+0.086*[#  15]+0.067*[#   9]+0.024*[#  10]+
          +0.024*[#  13]+0.002*[#  16]+0.002*[#  19]+
    |psi|^2 = 0.999
==== e(   2) =    -7.41949 eV ==== 
     psi = 0.445*[#   1]+0.445*[#   5]+0.029*[#   9]+0.019*[#  10]+0.019*[#  13]+
          +0.017*[#  16]+0.017*[#  19]+0.004*[#  15]+
    |psi|^2 = 0.998
==== e(   3) =     3.24076 eV ==== 
     psi = 0.163*[#  11]+0.163*[#  12]+0.163*[#  14]+0.066*[#  10]+0.066*[#  13]+
          +0.053*[#   2]+0.053*[#   3]+0.053*[#   4]+0.053*[#   6]+0.053*[#   7]+
          +0.053*[#   8]+0.030*[#  15]+0.014*[#   9]+0.003*[#  17]+0.003*[#  18]+
          +0.003*[#  20]+0.002*[#   1]+0.002*[#   5]+
    |psi|^2 = 0.998
==== e(   4) =     3.99335 eV ==== 
     psi = 0.169*[#  10]+0.169*[#  13]+0.066*[#   2]+0.066*[#   3]+0.066*[#   4]+
          +0.066*[#   6]+0.066*[#   7]+0.066*[#   8]+0.055*[#  11]+0.055*[#  12]+
          +0.055*[#  14]+0.040*[#  15]+0.034*[#   9]+0.004*[#   1]+0.004*[#   5]+
          +0.004*[#  16]+0.004*[#  19]+0.003*[#  17]+0.003*[#  18]+0.003*[#  20]+
    |psi|^2 = 0.999
==== e(   5) =     4.22392 eV ==== 
     psi = 0.150*[#  11]+0.150*[#  12]+0.150*[#  14]+0.068*[#   2]+0.068*[#   3]+
          +0.068*[#   4]+0.068*[#   6]+0.068*[#   7]+0.068*[#   8]+0.029*[#  17]+
          +0.029*[#  18]+0.029*[#  20]+0.027*[#   9]+0.003*[#  16]+0.003*[#  19]+
          +0.003*[#  10]+0.003*[#  13]+0.003*[#   1]+0.003*[#   5]+0.001*[#  15]+
    |psi|^2 = 0.993
==== e(   6) =     4.52059 eV ==== 
     psi = 0.272*[#  10]+0.272*[#  13]+0.052*[#   2]+0.052*[#   3]+0.052*[#   4]+
          +0.052*[#   6]+0.052*[#   7]+0.052*[#   8]+0.028*[#  11]+0.028*[#  12]+
          +0.028*[#  14]+0.011*[#  16]+0.011*[#  19]+0.010*[#   1]+0.010*[#   5]+
          +0.009*[#   9]+0.003*[#  15]+
    |psi|^2 = 0.996
==== e(   7) =     5.31891 eV ==== 
     psi = 0.159*[#  11]+0.159*[#  12]+0.159*[#  14]+0.092*[#  10]+0.092*[#  13]+
          +0.048*[#   2]+0.048*[#   3]+0.048*[#   4]+0.048*[#   6]+0.048*[#   7]+
          +0.048*[#   8]+0.009*[#   1]+0.009*[#   5]+0.008*[#  16]+0.008*[#  19]+
          +0.004*[#  17]+0.004*[#  18]+0.004*[#  20]+0.001*[#   9]+
    |psi|^2 = 0.993
==== e(   8) =     6.25836 eV ==== 
     psi = 0.096*[#   2]+0.096*[#   3]+0.096*[#   4]+0.096*[#   6]+0.096*[#   7]+
          +0.096*[#   8]+0.096*[#  11]+0.096*[#  12]+0.096*[#  14]+0.044*[#   9]+
          +0.016*[#  17]+0.016*[#  18]+0.016*[#  20]+0.009*[#  15]+0.009*[#  16]+
          +0.009*[#  19]+
    |psi|^2 = 0.988
==== e(   9) =     6.38801 eV ==== 
     psi = 0.093*[#  11]+0.093*[#  12]+0.093*[#  14]+0.082*[#   2]+0.082*[#   3]+
          +0.082*[#   4]+0.082*[#   6]+0.082*[#   7]+0.082*[#   8]+0.036*[#  10]+
          +0.036*[#  13]+0.020*[#  17]+0.020*[#  18]+0.020*[#  20]+0.019*[#   9]+
          +0.017*[#  15]+0.016*[#  16]+0.016*[#  19]+0.012*[#   1]+0.012*[#   5]+
    |psi|^2 = 0.990
==== e(  10) =     7.72210 eV ==== 
     psi = 0.125*[#  11]+0.125*[#  12]+0.125*[#  14]+0.085*[#   2]+0.085*[#   3]+
          +0.085*[#   4]+0.085*[#   6]+0.085*[#   7]+0.085*[#   8]+0.019*[#  17]+
          +0.019*[#  18]+0.019*[#  20]+0.013*[#  15]+0.007*[#  16]+0.007*[#  19]+
          +0.007*[#  10]+0.007*[#  13]+0.002*[#   9]+0.001*[#   1]+0.001*[#   5]+
    |psi|^2 = 0.987
==== e(  11) =     8.07863 eV ==== 
     psi = 0.103*[#  11]+0.103*[#  12]+0.103*[#  14]+0.101*[#   2]+0.101*[#   3]+
          +0.101*[#   4]+0.101*[#   6]+0.101*[#   7]+0.101*[#   8]+0.011*[#  17]+
          +0.011*[#  18]+0.011*[#  20]+0.007*[#   9]+0.007*[#  10]+0.007*[#  13]+
          +0.004*[#  16]+0.004*[#  19]+
    |psi|^2 = 0.979
==== e(  12) =     8.52091 eV ==== 
     psi = 0.158*[#  10]+0.158*[#  13]+0.078*[#   2]+0.078*[#   3]+0.078*[#   4]+
          +0.078*[#   6]+0.078*[#   7]+0.078*[#   8]+0.047*[#  15]+0.032*[#  16]+
          +0.032*[#  19]+0.024*[#   1]+0.024*[#   5]+0.009*[#  11]+0.009*[#  12]+
          +0.009*[#  14]+0.005*[#  17]+0.005*[#  18]+0.005*[#  20]+
    |psi|^2 = 0.987
==== e(  13) =     9.15642 eV ==== 
     psi = 0.124*[#  10]+0.124*[#  13]+0.096*[#   2]+0.096*[#   3]+0.096*[#   4]+
          +0.096*[#   6]+0.096*[#   7]+0.096*[#   8]+0.025*[#  16]+0.025*[#  19]+
          +0.022*[#  17]+0.022*[#  18]+0.022*[#  20]+0.009*[#  11]+0.009*[#  12]+
          +0.009*[#  14]+0.008*[#   1]+0.008*[#   5]+
    |psi|^2 = 0.983
==== e(  14) =     9.89672 eV ==== 
     psi = 0.229*[#  17]+0.229*[#  18]+0.229*[#  20]+0.043*[#   2]+0.043*[#   3]+
          +0.043*[#   4]+0.043*[#   6]+0.043*[#   7]+0.043*[#   8]+0.011*[#  10]+
          +0.011*[#  13]+0.008*[#   9]+0.006*[#  11]+0.006*[#  12]+0.006*[#  14]+
    |psi|^2 = 0.992
==== e(  15) =    13.14035 eV ==== 
     psi = 0.239*[#  17]+0.239*[#  18]+0.239*[#  20]+0.084*[#  16]+0.084*[#  19]+
          +0.015*[#   9]+0.014*[#   2]+0.014*[#   3]+0.014*[#   4]+0.014*[#   6]+
          +0.014*[#   7]+0.014*[#   8]+0.006*[#   1]+0.006*[#   5]+
    |psi|^2 = 0.995
==== e(  16) =    13.37204 eV ==== 
     psi = 0.213*[#  17]+0.213*[#  18]+0.213*[#  20]+0.147*[#  16]+0.147*[#  19]+
          +0.009*[#   2]+0.009*[#   3]+0.009*[#   4]+0.009*[#   6]+0.009*[#   7]+
          +0.009*[#   8]+0.003*[#   9]+0.002*[#  15]+0.001*[#  10]+0.001*[#  13]+
    |psi|^2 = 0.994
==== e(  17) =    14.05705 eV ==== 
     psi = 0.275*[#  16]+0.275*[#  19]+0.087*[#  17]+0.087*[#  18]+0.087*[#  20]+
          +0.073*[#   9]+0.028*[#   1]+0.028*[#   5]+0.015*[#  15]+0.006*[#   2]+
          +0.006*[#   3]+0.006*[#   4]+0.006*[#   6]+0.006*[#   7]+0.006*[#   8]+
    |psi|^2 = 0.992
==== e(  18) =    14.48806 eV ==== 
     psi = 0.303*[#  16]+0.303*[#  19]+0.093*[#  17]+0.093*[#  18]+0.093*[#  20]+
          +0.015*[#   2]+0.015*[#   3]+0.015*[#   4]+0.015*[#   6]+0.015*[#   7]+
          +0.015*[#   8]+0.004*[#   1]+0.004*[#   5]+0.003*[#   9]+0.001*[#  10]+
          +0.001*[#  13]+
    |psi|^2 = 0.989
==== e(  19) =    16.39313 eV ==== 
     psi = 0.284*[#   9]+0.242*[#  15]+0.044*[#   2]+0.044*[#   3]+0.044*[#   4]+
          +0.044*[#   6]+0.044*[#   7]+0.044*[#   8]+0.043*[#  16]+0.043*[#  19]+
          +0.039*[#   1]+0.039*[#   5]+0.002*[#  17]+0.002*[#  18]+0.002*[#  20]+
          +0.002*[#  10]+0.002*[#  13]+
    |psi|^2 = 0.965
==== e(  20) =    19.31558 eV ==== 
     psi = 0.296*[#  15]+0.219*[#   9]+0.019*[#   2]+0.019*[#   3]+0.019*[#   4]+
          +0.019*[#   6]+0.019*[#   7]+0.019*[#   8]+0.002*[#   1]+0.002*[#   5]+
          +0.002*[#  16]+0.002*[#  19]+
    |psi|^2 = 0.638
==== e(  21) =    20.28394 eV ==== 
     psi = 0.152*[#  15]+0.131*[#   9]+0.009*[#   2]+0.009*[#   3]+0.009*[#   4]+
          +0.009*[#   6]+0.009*[#   7]+0.009*[#   8]+0.004*[#  16]+0.004*[#  19]+
          +0.001*[#  10]+0.001*[#  13]+
    |psi|^2 = 0.352
==== e(  22) =    20.93909 eV ==== 
     psi = 0.006*[#  15]+0.005*[#   2]+0.005*[#   3]+0.005*[#   4]+0.005*[#   6]+
          +0.005*[#   7]+0.005*[#   8]+
    |psi|^2 = 0.039
==== e(  23) =    22.52903 eV ==== 
     psi = 0.001*[#   2]+0.001*[#   3]+0.001*[#   4]+0.001*[#   6]+0.001*[#   7]+
          +0.001*[#   8]+0.001*[#  17]+0.001*[#  18]+0.001*[#  20]+
    |psi|^2 = 0.014
==== e(  24) =    23.14981 eV ==== 
     psi = 0.025*[#  15]+0.002*[#   2]+0.002*[#   3]+0.002*[#   4]+0.002*[#   6]+
          +0.002*[#   7]+0.002*[#   8]+
    |psi|^2 = 0.041

 k =  -0.8125000000  0.4375000000  0.1875000000
==== e(   1) =    -7.84481 eV ==== 
     psi = 0.428*[#   1]+0.428*[#   5]+0.049*[#  10]+0.049*[#  13]+0.023*[#   9]+
          +0.012*[#  15]+0.003*[#  16]+0.003*[#  19]+
    |psi|^2 = 0.998
==== e(   2) =    -7.26887 eV ==== 
     psi = 0.455*[#   1]+0.455*[#   5]+0.023*[#  16]+0.023*[#  19]+0.016*[#  15]+
          +0.007*[#  10]+0.007*[#  13]+0.007*[#   9]+
    |psi|^2 = 0.997
==== e(   3) =     3.00380 eV ==== 
     psi = 0.212*[#  11]+0.212*[#  12]+0.212*[#  14]+0.051*[#   2]+0.051*[#   3]+
          +0.051*[#   4]+0.051*[#   6]+0.051*[#   7]+0.051*[#   8]+0.034*[#   9]+
          +0.005*[#  10]+0.005*[#  13]+0.004*[#  15]+0.002*[#   1]+0.002*[#   5]+
    |psi|^2 = 0.999
==== e(   4) =     3.81049 eV ==== 
     psi = 0.151*[#  10]+0.151*[#  13]+0.076*[#   2]+0.076*[#   3]+0.076*[#   4]+
          +0.076*[#   6]+0.076*[#   7]+0.076*[#   8]+0.051*[#  15]+0.046*[#  11]+
          +0.046*[#  12]+0.046*[#  14]+0.024*[#   9]+0.006*[#  17]+0.006*[#  18]+
          +0.006*[#  20]+0.002*[#   1]+0.002*[#   5]+0.001*[#  16]+0.001*[#  19]+
    |psi|^2 = 0.997
==== e(   5) =     4.15133 eV ==== 
     psi = 0.194*[#  10]+0.194*[#  13]+0.068*[#   2]+0.068*[#   3]+0.068*[#   4]+
          +0.068*[#   6]+0.068*[#   7]+0.068*[#   8]+0.046*[#  11]+0.046*[#  12]+
          +0.046*[#  14]+0.009*[#   1]+0.009*[#   5]+0.008*[#  17]+0.008*[#  18]+
          +0.008*[#  20]+0.006*[#   9]+0.002*[#  15]+
    |psi|^2 = 0.989
==== e(   6) =     4.84796 eV ==== 
     psi = 0.174*[#  10]+0.174*[#  13]+0.069*[#  11]+0.069*[#  12]+0.069*[#  14]+
          +0.059*[#   2]+0.059*[#   3]+0.059*[#   4]+0.059*[#   6]+0.059*[#   7]+
          +0.059*[#   8]+0.015*[#  16]+0.015*[#  19]+0.012*[#  17]+0.012*[#  18]+
          +0.012*[#  20]+0.006*[#   9]+0.005*[#   1]+0.005*[#   5]+0.005*[#  15]+
    |psi|^2 = 0.994
==== e(   7) =     5.63775 eV ==== 
     psi = 0.110*[#  11]+0.110*[#  12]+0.110*[#  14]+0.092*[#   2]+0.092*[#   3]+
          +0.092*[#   4]+0.092*[#   6]+0.092*[#   7]+0.092*[#   8]+0.041*[#  15]+
          +0.015*[#  17]+0.015*[#  18]+0.015*[#  20]+0.008*[#   9]+0.006*[#  10]+
          +0.006*[#  13]+0.001*[#  16]+0.001*[#  19]+
    |psi|^2 = 0.991
==== e(   8) =     5.94981 eV ==== 
     psi = 0.081*[#   2]+0.081*[#   3]+0.081*[#   4]+0.081*[#   6]+0.081*[#   7]+
          +0.081*[#   8]+0.080*[#  10]+0.080*[#  13]+0.078*[#  11]+0.078*[#  12]+
          +0.078*[#  14]+0.022*[#  16]+0.022*[#  19]+0.016*[#   1]+0.016*[#   5]+
          +0.014*[#   9]+0.010*[#  15]+0.004*[#  17]+0.004*[#  18]+0.004*[#  20]+
    |psi|^2 = 0.992
==== e(   9) =     6.34239 eV ==== 
     psi = 0.126*[#  11]+0.126*[#  12]+0.126*[#  14]+0.077*[#   2]+0.077*[#   3]+
          +0.077*[#   4]+0.077*[#   6]+0.077*[#   7]+0.077*[#   8]+0.027*[#   9]+
          +0.022*[#  17]+0.022*[#  18]+0.022*[#  20]+0.015*[#  16]+0.015*[#  19]+
          +0.009*[#  10]+0.009*[#  13]+
    |psi|^2 = 0.982
==== e(  10) =     7.47252 eV ==== 
     psi = 0.112*[#  11]+0.112*[#  12]+0.112*[#  14]+0.096*[#   2]+0.096*[#   3]+
          +0.096*[#   4]+0.096*[#   6]+0.096*[#   7]+0.096*[#   8]+0.015*[#  16]+
          +0.015*[#  19]+0.014*[#  10]+0.014*[#  13]+0.003*[#  17]+0.003*[#  18]+
          +0.003*[#  20]+0.002*[#   1]+0.002*[#   5]+
    |psi|^2 = 0.983
==== e(  11) =     7.67325 eV ==== 
     psi = 0.159*[#  11]+0.159*[#  12]+0.159*[#  14]+0.071*[#   2]+0.071*[#   3]+
          +0.071*[#   4]+0.071*[#   6]+0.071*[#   7]+0.071*[#   8]+0.045*[#   9]+
          +0.010*[#  10]+0.010*[#  13]+0.003*[#  16]+0.003*[#  19]+0.003*[#  17]+
          +0.003*[#  18]+0.003*[#  20]+0.001*[#  15]+
    |psi|^2 = 0.985
==== e(  12) =     8.85529 eV ==== 
     psi = 0.142*[#  10]+0.142*[#  13]+0.078*[#   2]+0.078*[#   3]+0.078*[#   4]+
          +0.078*[#   6]+0.078*[#   7]+0.078*[#   8]+0.026*[#  11]+0.026*[#  12]+
          +0.026*[#  14]+0.022*[#   1]+0.022*[#   5]+0.019*[#  17]+0.019*[#  18]+
          +0.019*[#  20]+0.016*[#  16]+0.016*[#  19]+0.013*[#  15]+
    |psi|^2 = 0.979
==== e(  13) =     9.09513 eV ==== 
     psi = 0.134*[#  10]+0.134*[#  13]+0.092*[#   2]+0.092*[#   3]+0.092*[#   4]+
          +0.092*[#   6]+0.092*[#   7]+0.092*[#   8]+0.027*[#  17]+0.027*[#  18]+
          +0.027*[#  20]+0.017*[#  16]+0.017*[#  19]+0.009*[#  15]+0.008*[#  11]+
          +0.008*[#  12]+0.008*[#  14]+0.006*[#   1]+0.006*[#   5]+
    |psi|^2 = 0.980
==== e(  14) =     9.79116 eV ==== 
     psi = 0.243*[#  17]+0.243*[#  18]+0.243*[#  20]+0.036*[#   2]+0.036*[#   3]+
          +0.036*[#   4]+0.036*[#   6]+0.036*[#   7]+0.036*[#   8]+0.015*[#  10]+
          +0.015*[#  13]+0.004*[#  15]+0.003*[#  11]+0.003*[#  12]+0.003*[#  14]+
    |psi|^2 = 0.992
==== e(  15) =    13.19652 eV ==== 
     psi = 0.255*[#  17]+0.255*[#  18]+0.255*[#  20]+0.067*[#  16]+0.067*[#  19]+
          +0.013*[#   2]+0.013*[#   3]+0.013*[#   4]+0.013*[#   6]+0.013*[#   7]+
          +0.013*[#   8]+0.005*[#  15]+0.004*[#   1]+0.004*[#   5]+0.003*[#   9]+
    |psi|^2 = 0.995
==== e(  16) =    13.41822 eV ==== 
     psi = 0.201*[#  17]+0.201*[#  18]+0.201*[#  20]+0.175*[#  16]+0.175*[#  19]+
          +0.006*[#   2]+0.006*[#   3]+0.006*[#   4]+0.006*[#   6]+0.006*[#   7]+
          +0.006*[#   8]+0.004*[#   9]+0.001*[#   1]+0.001*[#   5]+0.001*[#  10]+
          +0.001*[#  13]+
    |psi|^2 = 0.995
==== e(  17) =    14.33699 eV ==== 
     psi = 0.344*[#  16]+0.344*[#  19]+0.055*[#  17]+0.055*[#  18]+0.055*[#  20]+
          +0.022*[#   1]+0.022*[#   5]+0.014*[#   9]+0.010*[#   2]+0.010*[#   3]+
          +0.010*[#   4]+0.010*[#   6]+0.010*[#   7]+0.010*[#   8]+0.003*[#  15]+
    |psi|^2 = 0.980
==== e(  18) =    14.54582 eV ==== 
     psi = 0.261*[#  16]+0.261*[#  19]+0.122*[#  17]+0.122*[#  18]+0.122*[#  20]+
          +0.013*[#   2]+0.013*[#   3]+0.013*[#   4]+0.013*[#   6]+0.013*[#   7]+
          +0.013*[#   8]+0.012*[#   9]+0.002*[#   1]+0.002*[#   5]+
    |psi|^2 = 0.988
==== e(  19) =    17.81490 eV ==== 
     psi = 0.436*[#   9]+0.237*[#  15]+0.030*[#   2]+0.030*[#   3]+0.030*[#   4]+
          +0.030*[#   6]+0.030*[#   7]+0.030*[#   8]+0.014*[#   1]+0.014*[#   5]+
          +0.010*[#  16]+0.010*[#  19]+
    |psi|^2 = 0.905
==== e(  20) =    18.90515 eV ==== 
     psi = 0.093*[#   9]+0.086*[#  15]+0.009*[#   2]+0.009*[#   3]+0.009*[#   4]+
          +0.009*[#   6]+0.009*[#   7]+0.009*[#   8]+0.001*[#   1]+0.001*[#   5]+
          +0.001*[#  16]+0.001*[#  19]+
    |psi|^2 = 0.242
==== e(  21) =    19.96487 eV ==== 
     psi = 0.337*[#  15]+0.227*[#   9]+0.019*[#   2]+0.019*[#   3]+0.019*[#   4]+
          +0.019*[#   6]+0.019*[#   7]+0.019*[#   8]+0.003*[#  16]+0.003*[#  19]+
    |psi|^2 = 0.688
==== e(  22) =    21.12597 eV ==== 
     psi = 0.133*[#  15]+0.005*[#   2]+0.005*[#   3]+0.005*[#   4]+0.005*[#   6]+
          +0.005*[#   7]+0.005*[#   8]+0.001*[#   1]+0.001*[#   5]+
    |psi|^2 = 0.172
==== e(  23) =    21.45187 eV ==== 
     psi = 0.009*[#  15]+0.004*[#   2]+0.004*[#   3]+0.004*[#   4]+0.004*[#   6]+
          +0.004*[#   7]+0.004*[#   8]+0.002*[#  16]+0.002*[#  19]+
    |psi|^2 = 0.037
==== e(  24) =    22.08604 eV ==== 
     psi = 0.002*[#   2]+0.002*[#   3]+0.002*[#   4]+0.002*[#   6]+0.002*[#   7]+
          +0.002*[#   8]+0.001*[#  17]+0.001*[#  18]+0.001*[#  20]+
    |psi|^2 = 0.018

 k =  -0.6250000000  0.3750000000  0.1250000000
==== e(   1) =    -7.81047 eV ==== 
     psi = 0.431*[#   1]+0.431*[#   5]+0.047*[#  10]+0.047*[#  13]+0.027*[#   9]+
          +0.009*[#  15]+0.003*[#  16]+0.003*[#  19]+
    |psi|^2 = 0.998
==== e(   2) =    -7.30284 eV ==== 
     psi = 0.450*[#   1]+0.450*[#   5]+0.024*[#  15]+0.022*[#  16]+0.022*[#  19]+
          +0.010*[#  10]+0.010*[#  13]+0.006*[#   9]+
    |psi|^2 = 0.998
==== e(   3) =     3.01035 eV ==== 
     psi = 0.208*[#  11]+0.208*[#  12]+0.208*[#  14]+0.052*[#   2]+0.052*[#   3]+
          +0.052*[#   4]+0.052*[#   6]+0.052*[#   7]+0.052*[#   8]+0.039*[#   9]+
          +0.004*[#   1]+0.004*[#   5]+0.004*[#  10]+0.004*[#  13]+0.004*[#  15]+
          +0.002*[#  17]+0.002*[#  18]+0.002*[#  20]+
    |psi|^2 = 0.999
==== e(   4) =     3.83392 eV ==== 
     psi = 0.170*[#  10]+0.170*[#  13]+0.068*[#   2]+0.068*[#   3]+0.068*[#   4]+
          +0.068*[#   6]+0.068*[#   7]+0.068*[#   8]+0.054*[#  11]+0.054*[#  12]+
          +0.054*[#  14]+0.050*[#  15]+0.010*[#   9]+0.007*[#  17]+0.007*[#  18]+
          +0.007*[#  20]+0.004*[#   1]+0.004*[#   5]+0.001*[#  16]+0.001*[#  19]+
    |psi|^2 = 0.997
==== e(   5) =     4.19035 eV ==== 
     psi = 0.163*[#  10]+0.163*[#  13]+0.074*[#   2]+0.074*[#   3]+0.074*[#   4]+
          +0.074*[#   6]+0.074*[#   7]+0.074*[#   8]+0.056*[#  11]+0.056*[#  12]+
          +0.056*[#  14]+0.008*[#   1]+0.008*[#   5]+0.007*[#   9]+0.007*[#  17]+
          +0.007*[#  18]+0.007*[#  20]+0.002*[#  16]+0.002*[#  19]+0.001*[#  15]+
    |psi|^2 = 0.988
==== e(   6) =     4.79826 eV ==== 
     psi = 0.183*[#  10]+0.183*[#  13]+0.063*[#   2]+0.063*[#   3]+0.063*[#   4]+
          +0.063*[#   6]+0.063*[#   7]+0.063*[#   8]+0.056*[#  11]+0.056*[#  12]+
          +0.056*[#  14]+0.013*[#  16]+0.013*[#  19]+0.012*[#  17]+0.012*[#  18]+
          +0.012*[#  20]+0.005*[#   1]+0.005*[#   5]+0.005*[#   9]+0.003*[#  15]+
    |psi|^2 = 0.993
==== e(   7) =     5.66277 eV ==== 
     psi = 0.133*[#  11]+0.133*[#  12]+0.133*[#  14]+0.081*[#   2]+0.081*[#   3]+
          +0.081*[#   4]+0.081*[#   6]+0.081*[#   7]+0.081*[#   8]+0.024*[#  15]+
          +0.013*[#  10]+0.013*[#  13]+0.011*[#  17]+0.011*[#  18]+0.011*[#  20]+
          +0.007*[#   9]+0.005*[#  16]+0.005*[#  19]+0.002*[#   1]+0.002*[#   5]+
    |psi|^2 = 0.989
==== e(   8) =     5.76592 eV ==== 
     psi = 0.092*[#   2]+0.092*[#   3]+0.092*[#   4]+0.092*[#   6]+0.092*[#   7]+
          +0.092*[#   8]+0.078*[#  10]+0.078*[#  13]+0.055*[#  11]+0.055*[#  12]+
          +0.055*[#  14]+0.019*[#  15]+0.014*[#  16]+0.014*[#  19]+0.013*[#   1]+
          +0.013*[#   5]+0.011*[#  17]+0.011*[#  18]+0.011*[#  20]+0.008*[#   9]+
    |psi|^2 = 0.989
==== e(   9) =     6.43459 eV ==== 
     psi = 0.114*[#  11]+0.114*[#  12]+0.114*[#  14]+0.082*[#   2]+0.082*[#   3]+
          +0.082*[#   4]+0.082*[#   6]+0.082*[#   7]+0.082*[#   8]+0.038*[#   9]+
          +0.019*[#  17]+0.019*[#  18]+0.019*[#  20]+0.017*[#  16]+0.017*[#  19]+
          +0.011*[#  10]+0.011*[#  13]+0.002*[#   1]+0.002*[#   5]+
    |psi|^2 = 0.985
==== e(  10) =     7.44926 eV ==== 
     psi = 0.101*[#   2]+0.101*[#   3]+0.101*[#   4]+0.101*[#   6]+0.101*[#   7]+
          +0.101*[#   8]+0.097*[#  11]+0.097*[#  12]+0.097*[#  14]+0.019*[#  16]+
          +0.019*[#  19]+0.017*[#  10]+0.017*[#  13]+0.003*[#  17]+0.003*[#  18]+
          +0.003*[#  20]+0.002*[#   1]+0.002*[#   5]+
    |psi|^2 = 0.980
==== e(  11) =     7.66830 eV ==== 
     psi = 0.188*[#  11]+0.188*[#  12]+0.188*[#  14]+0.057*[#   2]+0.057*[#   3]+
          +0.057*[#   4]+0.057*[#   6]+0.057*[#   7]+0.057*[#   8]+0.043*[#   9]+
          +0.009*[#  10]+0.009*[#  13]+0.003*[#  17]+0.003*[#  18]+0.003*[#  20]+
          +0.002*[#  16]+0.002*[#  19]+
    |psi|^2 = 0.985
==== e(  12) =     8.89200 eV ==== 
     psi = 0.144*[#  10]+0.144*[#  13]+0.087*[#   2]+0.087*[#   3]+0.087*[#   4]+
          +0.087*[#   6]+0.087*[#   7]+0.087*[#   8]+0.029*[#  15]+0.026*[#  11]+
          +0.026*[#  12]+0.026*[#  14]+0.015*[#   1]+0.015*[#   5]+0.008*[#  16]+
          +0.008*[#  19]+0.007*[#  17]+0.007*[#  18]+0.007*[#  20]+
    |psi|^2 = 0.980
==== e(  13) =     9.19841 eV ==== 
     psi = 0.135*[#  10]+0.135*[#  13]+0.093*[#   2]+0.093*[#   3]+0.093*[#   4]+
          +0.093*[#   6]+0.093*[#   7]+0.093*[#   8]+0.029*[#  16]+0.029*[#  19]+
          +0.013*[#   1]+0.013*[#   5]+0.013*[#  17]+0.013*[#  18]+0.013*[#  20]+
          +0.008*[#  11]+0.008*[#  12]+0.008*[#  14]+0.001*[#  15]+
    |psi|^2 = 0.980
==== e(  14) =     9.73515 eV ==== 
     psi = 0.269*[#  17]+0.269*[#  18]+0.269*[#  20]+0.027*[#   2]+0.027*[#   3]+
          +0.027*[#   4]+0.027*[#   6]+0.027*[#   7]+0.027*[#   8]+0.007*[#  10]+
          +0.007*[#  13]+0.006*[#  15]+0.001*[#   9]+0.001*[#  16]+0.001*[#  19]+
    |psi|^2 = 0.995
==== e(  15) =    13.22539 eV ==== 
     psi = 0.263*[#  17]+0.263*[#  18]+0.263*[#  20]+0.055*[#  16]+0.055*[#  19]+
          +0.014*[#   2]+0.014*[#   3]+0.014*[#   4]+0.014*[#   6]+0.014*[#   7]+
          +0.014*[#   8]+0.006*[#  15]+0.002*[#   1]+0.002*[#   5]+
    |psi|^2 = 0.996
==== e(  16) =    13.39509 eV ==== 
     psi = 0.193*[#  17]+0.193*[#  18]+0.193*[#  20]+0.185*[#  16]+0.185*[#  19]+
          +0.007*[#   9]+0.006*[#   2]+0.006*[#   3]+0.006*[#   4]+0.006*[#   6]+
          +0.006*[#   7]+0.006*[#   8]+0.002*[#   1]+0.002*[#   5]+
    |psi|^2 = 0.996
==== e(  17) =    14.34151 eV ==== 
     psi = 0.316*[#  16]+0.316*[#  19]+0.076*[#  17]+0.076*[#  18]+0.076*[#  20]+
          +0.030*[#   9]+0.018*[#   1]+0.018*[#   5]+0.009*[#   2]+0.009*[#   3]+
          +0.009*[#   4]+0.009*[#   6]+0.009*[#   7]+0.009*[#   8]+0.002*[#  15]+
    |psi|^2 = 0.983
==== e(  18) =    14.56807 eV ==== 
     psi = 0.285*[#  16]+0.285*[#  19]+0.101*[#  17]+0.101*[#  18]+0.101*[#  20]+
          +0.016*[#   2]+0.016*[#   3]+0.016*[#   4]+0.016*[#   6]+0.016*[#   7]+
          +0.016*[#   8]+0.005*[#   1]+0.005*[#   5]+0.005*[#   9]+0.001*[#  15]+
    |psi|^2 = 0.986
==== e(  19) =    17.53271 eV ==== 
     psi = 0.339*[#   9]+0.203*[#  15]+0.029*[#   2]+0.029*[#   3]+0.029*[#   4]+
          +0.029*[#   6]+0.029*[#   7]+0.029*[#   8]+0.013*[#   1]+0.013*[#   5]+
          +0.012*[#  16]+0.012*[#  19]+
    |psi|^2 = 0.770
==== e(  20) =    18.96839 eV ==== 
     psi = 0.341*[#   9]+0.314*[#  15]+0.017*[#   2]+0.017*[#   3]+0.017*[#   4]+
          +0.017*[#   6]+0.017*[#   7]+0.017*[#   8]+0.003*[#   1]+0.003*[#   5]+
          +0.003*[#  16]+0.003*[#  19]+
    |psi|^2 = 0.769
==== e(  21) =    20.36296 eV ==== 
     psi = 0.054*[#  15]+0.050*[#   9]+0.007*[#   2]+0.007*[#   3]+0.007*[#   4]+
          +0.007*[#   6]+0.007*[#   7]+0.007*[#   8]+0.002*[#  16]+0.002*[#  19]+
    |psi|^2 = 0.153
==== e(  22) =    20.83162 eV ==== 
     psi = 0.157*[#  15]+0.017*[#   9]+0.009*[#   2]+0.009*[#   3]+0.009*[#   4]+
          +0.009*[#   6]+0.009*[#   7]+0.009*[#   8]+0.002*[#   1]+0.002*[#   5]+
    |psi|^2 = 0.239
==== e(  23) =    21.36933 eV ==== 
     psi = 0.072*[#  15]+0.006*[#   2]+0.006*[#   3]+0.006*[#   4]+0.006*[#   6]+
          +0.006*[#   7]+0.006*[#   8]+
    |psi|^2 = 0.113
==== e(  24) =    22.33286 eV ==== 
     psi = 0.003*[#  15]+0.002*[#   9]+0.002*[#   2]+0.002*[#   3]+0.002*[#   4]+
          +0.002*[#   6]+0.002*[#   7]+0.002*[#   8]+
    |psi|^2 = 0.020

 k =  -0.4375000000  0.3125000000  0.0625000000
==== e(   1) =    -7.89660 eV ==== 
     psi = 0.394*[#   1]+0.394*[#   5]+0.090*[#   9]+0.086*[#  15]+0.014*[#  10]+
          +0.014*[#  13]+0.002*[#  16]+0.002*[#  19]+
    |psi|^2 = 0.999
==== e(   2) =    -7.45517 eV ==== 
     psi = 0.445*[#   1]+0.445*[#   5]+0.029*[#  10]+0.029*[#  13]+0.016*[#  16]+
          +0.016*[#  19]+0.008*[#   9]+0.007*[#  15]+
    |psi|^2 = 0.998
==== e(   3) =     3.37698 eV ==== 
     psi = 0.189*[#  11]+0.189*[#  12]+0.189*[#  14]+0.048*[#   2]+0.048*[#   3]+
          +0.048*[#   4]+0.048*[#   6]+0.048*[#   7]+0.048*[#   8]+0.045*[#  10]+
          +0.045*[#  13]+0.020*[#   9]+0.006*[#  17]+0.006*[#  18]+0.006*[#  20]+
          +0.005*[#   1]+0.005*[#   5]+0.004*[#  15]+
    |psi|^2 = 0.997
==== e(   4) =     3.90687 eV ==== 
     psi = 0.160*[#  10]+0.160*[#  13]+0.070*[#   2]+0.070*[#   3]+0.070*[#   4]+
          +0.070*[#   6]+0.070*[#   7]+0.070*[#   8]+0.062*[#  11]+0.062*[#  12]+
          +0.062*[#  14]+0.056*[#  15]+0.003*[#  17]+0.003*[#  18]+0.003*[#  20]+
          +0.002*[#   1]+0.002*[#   5]+0.002*[#   9]+
    |psi|^2 = 0.998
==== e(   5) =     4.08505 eV ==== 
     psi = 0.103*[#  11]+0.103*[#  12]+0.103*[#  14]+0.075*[#   2]+0.075*[#   3]+
          +0.075*[#   4]+0.075*[#   6]+0.075*[#   7]+0.075*[#   8]+0.045*[#   9]+
          +0.045*[#  10]+0.045*[#  13]+0.029*[#  17]+0.029*[#  18]+0.029*[#  20]+
          +0.005*[#   1]+0.005*[#   5]+0.003*[#  16]+0.003*[#  19]+0.002*[#  15]+
    |psi|^2 = 0.993
==== e(   6) =     4.61023 eV ==== 
     psi = 0.266*[#  10]+0.266*[#  13]+0.052*[#   2]+0.052*[#   3]+0.052*[#   4]+
          +0.052*[#   6]+0.052*[#   7]+0.052*[#   8]+0.033*[#  11]+0.033*[#  12]+
          +0.033*[#  14]+0.011*[#   1]+0.011*[#   5]+0.010*[#  16]+0.010*[#  19]+
          +0.006*[#   9]+0.003*[#  15]+
    |psi|^2 = 0.995
==== e(   7) =     5.18215 eV ==== 
     psi = 0.163*[#  11]+0.163*[#  12]+0.163*[#  14]+0.100*[#  10]+0.100*[#  13]+
          +0.042*[#   2]+0.042*[#   3]+0.042*[#   4]+0.042*[#   6]+0.042*[#   7]+
          +0.042*[#   8]+0.010*[#  16]+0.010*[#  19]+0.010*[#   1]+0.010*[#   5]+
          +0.003*[#  17]+0.003*[#  18]+0.003*[#  20]+0.002*[#  15]+
    |psi|^2 = 0.994
==== e(   8) =     6.26772 eV ==== 
     psi = 0.123*[#   2]+0.123*[#   3]+0.123*[#   4]+0.123*[#   6]+0.123*[#   7]+
          +0.123*[#   8]+0.028*[#  11]+0.028*[#  12]+0.028*[#  14]+0.022*[#  10]+
          +0.022*[#  13]+0.019*[#  17]+0.019*[#  18]+0.019*[#  20]+0.014*[#  16]+
          +0.014*[#  19]+0.014*[#  15]+0.005*[#   1]+0.005*[#   5]+
    |psi|^2 = 0.979
==== e(   9) =     6.38867 eV ==== 
     psi = 0.148*[#  11]+0.148*[#  12]+0.148*[#  14]+0.065*[#   2]+0.065*[#   3]+
          +0.065*[#   4]+0.065*[#   6]+0.065*[#   7]+0.065*[#   8]+0.061*[#   9]+
          +0.014*[#  16]+0.014*[#  19]+0.013*[#  17]+0.013*[#  18]+0.013*[#  20]+
          +0.009*[#  10]+0.009*[#  13]+0.007*[#   1]+0.007*[#   5]+
    |psi|^2 = 0.993
==== e(  10) =     7.73634 eV ==== 
     psi = 0.127*[#  11]+0.127*[#  12]+0.127*[#  14]+0.080*[#   2]+0.080*[#   3]+
          +0.080*[#   4]+0.080*[#   6]+0.080*[#   7]+0.080*[#   8]+0.019*[#  16]+
          +0.019*[#  19]+0.017*[#  10]+0.017*[#  13]+0.016*[#  17]+0.016*[#  18]+
          +0.016*[#  20]+0.003*[#   9]+0.003*[#  15]+
    |psi|^2 = 0.986
==== e(  11) =     7.97073 eV ==== 
     psi = 0.122*[#  11]+0.122*[#  12]+0.122*[#  14]+0.092*[#   2]+0.092*[#   3]+
          +0.092*[#   4]+0.092*[#   6]+0.092*[#   7]+0.092*[#   8]+0.013*[#  15]+
          +0.011*[#  17]+0.011*[#  18]+0.011*[#  20]+0.006*[#   9]+0.003*[#   1]+
          +0.003*[#   5]+0.002*[#  10]+0.002*[#  13]+0.002*[#  16]+0.002*[#  19]+
    |psi|^2 = 0.980
==== e(  12) =     8.70701 eV ==== 
     psi = 0.144*[#  10]+0.144*[#  13]+0.089*[#   2]+0.089*[#   3]+0.089*[#   4]+
          +0.089*[#   6]+0.089*[#   7]+0.089*[#   8]+0.052*[#  15]+0.017*[#  16]+
          +0.017*[#  19]+0.015*[#  11]+0.015*[#  12]+0.015*[#  14]+0.014*[#   1]+
          +0.014*[#   5]+0.004*[#  17]+0.004*[#  18]+0.004*[#  20]+
    |psi|^2 = 0.988
==== e(  13) =     9.30286 eV ==== 
     psi = 0.131*[#  10]+0.131*[#  13]+0.099*[#   2]+0.099*[#   3]+0.099*[#   4]+
          +0.099*[#   6]+0.099*[#   7]+0.099*[#   8]+0.033*[#  16]+0.033*[#  19]+
          +0.015*[#   1]+0.015*[#   5]+0.009*[#  17]+0.009*[#  18]+0.009*[#  20]+
          +0.001*[#  11]+0.001*[#  12]+0.001*[#  14]+
    |psi|^2 = 0.984
==== e(  14) =     9.82588 eV ==== 
     psi = 0.250*[#  17]+0.250*[#  18]+0.250*[#  20]+0.034*[#   2]+0.034*[#   3]+
          +0.034*[#   4]+0.034*[#   6]+0.034*[#   7]+0.034*[#   8]+0.012*[#   9]+
          +0.005*[#  11]+0.005*[#  12]+0.005*[#  14]+0.004*[#  10]+0.004*[#  13]+
    |psi|^2 = 0.993
==== e(  15) =    13.19751 eV ==== 
     psi = 0.269*[#  17]+0.269*[#  18]+0.269*[#  20]+0.044*[#  16]+0.044*[#  19]+
          +0.016*[#   2]+0.016*[#   3]+0.016*[#   4]+0.016*[#   6]+0.016*[#   7]+
          +0.016*[#   8]+0.002*[#  15]+0.001*[#   1]+0.001*[#   5]+0.001*[#   9]+
    |psi|^2 = 0.995
==== e(  16) =    13.33380 eV ==== 
     psi = 0.194*[#  17]+0.194*[#  18]+0.194*[#  20]+0.174*[#  16]+0.174*[#  19]+
          +0.010*[#   9]+0.008*[#   2]+0.008*[#   3]+0.008*[#   4]+0.008*[#   6]+
          +0.008*[#   7]+0.008*[#   8]+0.002*[#  15]+0.002*[#   1]+0.002*[#   5]+
          +0.001*[#  10]+0.001*[#  13]+
    |psi|^2 = 0.995
==== e(  17) =    14.12856 eV ==== 
     psi = 0.269*[#  16]+0.269*[#  19]+0.089*[#  17]+0.089*[#  18]+0.089*[#  20]+
          +0.085*[#   9]+0.024*[#   1]+0.024*[#   5]+0.014*[#  15]+0.006*[#   2]+
          +0.006*[#   3]+0.006*[#   4]+0.006*[#   6]+0.006*[#   7]+0.006*[#   8]+
          +0.001*[#  10]+0.001*[#  13]+
    |psi|^2 = 0.992
==== e(  18) =    14.48327 eV ==== 
     psi = 0.321*[#  16]+0.321*[#  19]+0.077*[#  17]+0.077*[#  18]+0.077*[#  20]+
          +0.017*[#   2]+0.017*[#   3]+0.017*[#   4]+0.017*[#   6]+0.017*[#   7]+
          +0.017*[#   8]+0.006*[#   1]+0.006*[#   5]+0.002*[#   9]+0.001*[#  10]+
          +0.001*[#  13]+
    |psi|^2 = 0.991
==== e(  19) =    16.04342 eV ==== 
     psi = 0.268*[#   9]+0.236*[#  15]+0.046*[#   1]+0.046*[#   5]+0.042*[#   2]+
          +0.042*[#   3]+0.042*[#   4]+0.042*[#   6]+0.042*[#   7]+0.042*[#   8]+
          +0.040*[#  16]+0.040*[#  19]+0.005*[#  17]+0.005*[#  18]+0.005*[#  20]+
          +0.001*[#  10]+0.001*[#  13]+
    |psi|^2 = 0.946
==== e(  20) =    19.70627 eV ==== 
     psi = 0.406*[#  15]+0.329*[#   9]+0.019*[#   2]+0.019*[#   3]+0.019*[#   4]+
          +0.019*[#   6]+0.019*[#   7]+0.019*[#   8]+0.005*[#  16]+0.005*[#  19]+
          +0.001*[#  10]+0.001*[#  13]+
    |psi|^2 = 0.860
==== e(  21) =    20.01778 eV ==== 
     psi = 0.041*[#  15]+0.040*[#   9]+0.007*[#   2]+0.007*[#   3]+0.007*[#   4]+
          +0.007*[#   6]+0.007*[#   7]+0.007*[#   8]+
    |psi|^2 = 0.126
==== e(  22) =    20.93665 eV ==== 
     psi = 0.012*[#  15]+0.006*[#   2]+0.006*[#   3]+0.006*[#   4]+0.006*[#   6]+
          +0.006*[#   7]+0.006*[#   8]+0.002*[#   9]+
    |psi|^2 = 0.051
==== e(  23) =    22.23385 eV ==== 
     psi = 0.016*[#  15]+0.003*[#   2]+0.003*[#   3]+0.003*[#   4]+0.003*[#   6]+
          +0.003*[#   7]+0.003*[#   8]+0.001*[#  17]+0.001*[#  18]+0.001*[#  20]+
    |psi|^2 = 0.037
==== e(  24) =    23.60545 eV ==== 
     psi = 0.018*[#  15]+0.002*[#   2]+0.002*[#   3]+0.002*[#   4]+0.002*[#   6]+
          +0.002*[#   7]+0.002*[#   8]+0.002*[#   9]+0.001*[#  16]+0.001*[#  19]+
    |psi|^2 = 0.040

 k =  -0.2500000000  0.2500000000  0.0000000000
==== e(   1) =    -8.19897 eV ==== 
     psi = 0.339*[#   1]+0.339*[#   5]+0.161*[#   9]+0.154*[#  15]+0.001*[#  10]+
          +0.001*[#  13]+
    |psi|^2 = 1.000
==== e(   2) =    -7.44605 eV ==== 
     psi = 0.464*[#   1]+0.464*[#   5]+0.023*[#  10]+0.023*[#  13]+0.010*[#  16]+
          +0.010*[#  19]+
    |psi|^2 = 0.996
==== e(   3) =     2.90667 eV ==== 
     psi = 0.088*[#  11]+0.088*[#  12]+0.088*[#  14]+0.083*[#   2]+0.083*[#   3]+
          +0.083*[#   4]+0.083*[#   6]+0.083*[#   7]+0.083*[#   8]+0.059*[#   9]+
          +0.048*[#  15]+0.038*[#  17]+0.038*[#  18]+0.038*[#  20]+0.007*[#  10]+
          +0.007*[#  13]+
    |psi|^2 = 0.998
==== e(   4) =     3.71065 eV ==== 
     psi = 0.152*[#  11]+0.152*[#  12]+0.152*[#  14]+0.146*[#  10]+0.146*[#  13]+
          +0.039*[#   2]+0.039*[#   3]+0.039*[#   4]+0.039*[#   6]+0.039*[#   7]+
          +0.039*[#   8]+0.004*[#   1]+0.004*[#   5]+
    |psi|^2 = 0.995
==== e(   5) =     4.24364 eV ==== 
     psi = 0.310*[#  10]+0.310*[#  13]+0.045*[#   2]+0.045*[#   3]+0.045*[#   4]+
          +0.045*[#   6]+0.045*[#   7]+0.045*[#   8]+0.028*[#  11]+0.028*[#  12]+
          +0.028*[#  14]+0.005*[#   9]+0.004*[#  16]+0.004*[#  19]+0.004*[#  17]+
          +0.004*[#  18]+0.004*[#  20]+
    |psi|^2 = 0.999
==== e(   6) =     4.95217 eV ==== 
     psi = 0.227*[#  11]+0.227*[#  12]+0.227*[#  14]+0.036*[#   2]+0.036*[#   3]+
          +0.036*[#   4]+0.036*[#   6]+0.036*[#   7]+0.036*[#   8]+0.022*[#  10]+
          +0.022*[#  13]+0.017*[#  15]+0.011*[#   9]+0.009*[#   1]+0.009*[#   5]+
          +0.003*[#  16]+0.003*[#  19]+0.003*[#  17]+0.003*[#  18]+0.003*[#  20]+
    |psi|^2 = 0.998
==== e(   7) =     5.17341 eV ==== 
     psi = 0.188*[#  10]+0.188*[#  13]+0.142*[#  11]+0.142*[#  12]+0.142*[#  14]+
          +0.027*[#   2]+0.027*[#   3]+0.027*[#   4]+0.027*[#   6]+0.027*[#   7]+
          +0.027*[#   8]+0.009*[#   1]+0.009*[#   5]+0.003*[#  16]+0.003*[#  19]+
          +0.002*[#  17]+0.002*[#  18]+0.002*[#  20]+
    |psi|^2 = 0.995
==== e(   8) =     6.63810 eV ==== 
     psi = 0.125*[#  11]+0.125*[#  12]+0.125*[#  14]+0.068*[#   2]+0.068*[#   3]+
          +0.068*[#   4]+0.068*[#   6]+0.068*[#   7]+0.068*[#   8]+0.051*[#   9]+
          +0.023*[#  17]+0.023*[#  18]+0.023*[#  20]+0.016*[#   1]+0.016*[#   5]+
          +0.014*[#  16]+0.014*[#  19]+0.009*[#  10]+0.009*[#  13]+0.009*[#  15]+
    |psi|^2 = 0.996
==== e(   9) =     6.96285 eV ==== 
     psi = 0.130*[#   2]+0.130*[#   3]+0.130*[#   4]+0.130*[#   6]+0.130*[#   7]+
          +0.130*[#   8]+0.049*[#  16]+0.049*[#  19]+0.016*[#  10]+0.016*[#  13]+
[...]
     psi = 0.367*[#   1]+0.367*[#   5]+0.198*[#   9]+0.054*[#  15]+0.005*[#  16]+
          +0.005*[#  19]+
    |psi|^2 = 0.999
==== e(   2) =    -7.90761 eV ==== 
     psi = 0.380*[#   1]+0.380*[#   5]+0.188*[#  15]+0.035*[#   9]+0.003*[#  10]+
          +0.003*[#  13]+0.003*[#  16]+0.003*[#  19]+
    |psi|^2 = 0.999
==== e(   3) =     3.58987 eV ==== 
     psi = 0.192*[#  16]+0.192*[#  19]+0.081*[#  17]+0.081*[#  18]+0.081*[#  20]+
          +0.049*[#   9]+0.049*[#   2]+0.049*[#   3]+0.049*[#   4]+0.049*[#   6]+
          +0.049*[#   7]+0.049*[#   8]+0.007*[#  11]+0.007*[#  12]+0.007*[#  14]+
          +0.003*[#   1]+0.003*[#   5]+0.002*[#  15]+
    |psi|^2 = 0.999
==== e(   4) =     3.97877 eV ==== 
     psi = 0.147*[#  17]+0.147*[#  18]+0.147*[#  20]+0.076*[#  15]+0.066*[#   2]+
          +0.066*[#   3]+0.066*[#   4]+0.066*[#   6]+0.066*[#   7]+0.066*[#   8]+
          +0.024*[#   1]+0.024*[#   5]+0.005*[#  11]+0.005*[#  12]+0.005*[#  14]+
          +0.004*[#  10]+0.004*[#  13]+0.003*[#  16]+0.003*[#  19]+0.002*[#   9]+
    |psi|^2 = 0.996
==== e(   5) =     4.08886 eV ==== 
     psi = 0.268*[#  16]+0.268*[#  19]+0.090*[#  17]+0.090*[#  18]+0.090*[#  20]+
          +0.032*[#   2]+0.032*[#   3]+0.032*[#   4]+0.032*[#   6]+0.032*[#   7]+
          +0.032*[#   8]+
    |psi|^2 = 0.999
==== e(   6) =     5.08301 eV ==== 
     psi = 0.168*[#  17]+0.168*[#  18]+0.168*[#  20]+0.052*[#  11]+0.052*[#  12]+
          +0.052*[#  14]+0.044*[#   2]+0.044*[#   3]+0.044*[#   4]+0.044*[#   6]+
          +0.044*[#   7]+0.044*[#   8]+0.030*[#   9]+0.014*[#  16]+0.014*[#  19]+
          +0.005*[#   1]+0.005*[#   5]+0.002*[#  15]+
    |psi|^2 = 0.997
==== e(   7) =     5.42082 eV ==== 
     psi = 0.226*[#  17]+0.226*[#  18]+0.226*[#  20]+0.114*[#  16]+0.114*[#  19]+
          +0.014*[#   2]+0.014*[#   3]+0.014*[#   4]+0.014*[#   6]+0.014*[#   7]+
          +0.014*[#   8]+0.004*[#  10]+0.004*[#  13]+
    |psi|^2 = 0.999
==== e(   8) =     5.61189 eV ==== 
     psi = 0.143*[#  16]+0.143*[#  19]+0.060*[#   2]+0.060*[#   3]+0.060*[#   4]+
          +0.060*[#   6]+0.060*[#   7]+0.060*[#   8]+0.054*[#  17]+0.054*[#  18]+
          +0.054*[#  20]+0.036*[#  11]+0.036*[#  12]+0.036*[#  14]+0.018*[#   1]+
          +0.018*[#   5]+0.016*[#   9]+0.008*[#  10]+0.008*[#  13]+0.006*[#  15]+
    |psi|^2 = 0.994
==== e(   9) =     6.97623 eV ==== 
     psi = 0.091*[#   2]+0.091*[#   3]+0.091*[#   4]+0.091*[#   6]+0.091*[#   7]+
          +0.091*[#   8]+0.088*[#  17]+0.088*[#  18]+0.088*[#  20]+0.051*[#  15]+
          +0.028*[#  10]+0.028*[#  13]+0.014*[#  16]+0.014*[#  19]+0.012*[#  11]+
          +0.012*[#  12]+0.012*[#  14]+0.007*[#   1]+0.007*[#   5]+
    |psi|^2 = 0.995
==== e(  10) =     7.57097 eV ==== 
     psi = 0.133*[#   2]+0.133*[#   3]+0.133*[#   4]+0.133*[#   6]+0.133*[#   7]+
          +0.133*[#   8]+0.062*[#  10]+0.062*[#  13]+0.015*[#  17]+0.015*[#  18]+
          +0.015*[#  20]+0.008*[#  11]+0.008*[#  12]+0.008*[#  14]+0.002*[#  16]+
          +0.002*[#  19]+
    |psi|^2 = 0.994
==== e(  11) =     8.58382 eV ==== 
     psi = 0.101*[#  17]+0.101*[#  18]+0.101*[#  20]+0.098*[#   2]+0.098*[#   3]+
          +0.098*[#   4]+0.098*[#   6]+0.098*[#   7]+0.098*[#   8]+0.019*[#  15]+
          +0.016*[#  16]+0.016*[#  19]+0.015*[#   9]+0.007*[#   1]+0.007*[#   5]+
          +0.007*[#  11]+0.007*[#  12]+0.007*[#  14]+
    |psi|^2 = 0.989
==== e(  12) =     8.92703 eV ==== 
     psi = 0.099*[#  16]+0.099*[#  19]+0.093*[#   2]+0.093*[#   3]+0.093*[#   4]+
          +0.093*[#   6]+0.093*[#   7]+0.093*[#   8]+0.037*[#   9]+0.023*[#  17]+
          +0.023*[#  18]+0.023*[#  20]+0.021*[#  10]+0.021*[#  13]+0.017*[#   1]+
          +0.017*[#   5]+0.016*[#  11]+0.016*[#  12]+0.016*[#  14]+0.006*[#  15]+
    |psi|^2 = 0.988
==== e(  13) =     9.56520 eV ==== 
     psi = 0.122*[#   2]+0.122*[#   3]+0.122*[#   4]+0.122*[#   6]+0.122*[#   7]+
          +0.122*[#   8]+0.113*[#  16]+0.113*[#  19]+0.012*[#  10]+0.012*[#  13]+
          +0.001*[#  11]+0.001*[#  12]+0.001*[#  14]+0.001*[#  17]+0.001*[#  18]+
          +0.001*[#  20]+
    |psi|^2 = 0.988
==== e(  14) =     9.89308 eV ==== 
     psi = 0.208*[#  11]+0.208*[#  12]+0.208*[#  14]+0.056*[#   2]+0.056*[#   3]+
          +0.056*[#   4]+0.056*[#   6]+0.056*[#   7]+0.056*[#   8]+0.020*[#   9]+
          +0.004*[#  16]+0.004*[#  19]+0.003*[#  10]+0.003*[#  13]+0.001*[#   1]+
          +0.001*[#   5]+
    |psi|^2 = 0.996
==== e(  15) =    13.05580 eV ==== 
     psi = 0.209*[#  11]+0.209*[#  12]+0.209*[#  14]+0.111*[#  10]+0.111*[#  13]+
          +0.053*[#  15]+0.014*[#   1]+0.014*[#   5]+0.010*[#   2]+0.010*[#   3]+
          +0.010*[#   4]+0.010*[#   6]+0.010*[#   7]+0.010*[#   8]+
    |psi|^2 = 0.996
==== e(  16) =    13.27458 eV ==== 
     psi = 0.262*[#  11]+0.262*[#  12]+0.262*[#  14]+0.065*[#  10]+0.065*[#  13]+
          +0.013*[#   2]+0.013*[#   3]+0.013*[#   4]+0.013*[#   6]+0.013*[#   7]+
          +0.013*[#   8]+
    |psi|^2 = 0.997
==== e(  17) =    13.84776 eV ==== 
     psi = 0.234*[#  10]+0.234*[#  13]+0.112*[#  11]+0.112*[#  12]+0.112*[#  14]+
          +0.086*[#  15]+0.027*[#   1]+0.027*[#   5]+0.008*[#   2]+0.008*[#   3]+
          +0.008*[#   4]+0.008*[#   6]+0.008*[#   7]+0.008*[#   8]+0.001*[#   9]+
    |psi|^2 = 0.990
==== e(  18) =    14.24425 eV ==== 
     psi = 0.354*[#  10]+0.354*[#  13]+0.062*[#  11]+0.062*[#  12]+0.062*[#  14]+
          +0.016*[#   2]+0.016*[#   3]+0.016*[#   4]+0.016*[#   6]+0.016*[#   7]+
          +0.016*[#   8]+
    |psi|^2 = 0.993
==== e(  19) =    15.17330 eV ==== 
     psi = 0.251*[#   9]+0.244*[#  15]+0.072*[#   1]+0.072*[#   5]+0.045*[#  10]+
          +0.045*[#  13]+0.040*[#   2]+0.040*[#   3]+0.040*[#   4]+0.040*[#   6]+
          +0.040*[#   7]+0.040*[#   8]+
    |psi|^2 = 0.972
==== e(  20) =    15.84767 eV ==== 
     psi = 0.316*[#   9]+0.199*[#  15]+0.053*[#   1]+0.053*[#   5]+0.041*[#   2]+
          +0.041*[#   3]+0.041*[#   4]+0.041*[#   6]+0.041*[#   7]+0.041*[#   8]+
          +0.040*[#  10]+0.040*[#  13]+0.002*[#  16]+0.002*[#  19]+0.001*[#  11]+
          +0.001*[#  12]+0.001*[#  14]+
    |psi|^2 = 0.958
==== e(  21) =    22.35160 eV ==== 
     psi = 0.016*[#   9]+0.007*[#  15]+0.003*[#   2]+0.003*[#   3]+0.003*[#   4]+
          +0.003*[#   6]+0.003*[#   7]+0.003*[#   8]+0.001*[#   1]+0.001*[#   5]+
    |psi|^2 = 0.046
==== e(  22) =    22.93052 eV ==== 
     psi = 0.002*[#   9]+0.001*[#   2]+0.001*[#   3]+0.001*[#   4]+0.001*[#   6]+
          +0.001*[#   7]+0.001*[#   8]+
    |psi|^2 = 0.014
==== e(  23) =    24.63904 eV ==== 
     psi = 0.002*[#  15]+0.002*[#  10]+0.002*[#  13]+0.001*[#   9]+
    |psi|^2 = 0.014
==== e(  24) =    25.14655 eV ==== 
     psi = 0.004*[#   9]+
    |psi|^2 = 0.012

 k =  -0.5000000000 -0.7500000000  1.0000000000
==== e(   1) =    -7.99189 eV ==== 
     psi = 0.390*[#   1]+0.390*[#   5]+0.174*[#   9]+0.021*[#  16]+0.021*[#  19]+
    |psi|^2 = 0.999
==== e(   2) =    -7.72222 eV ==== 
     psi = 0.395*[#   1]+0.395*[#   5]+0.184*[#  15]+0.009*[#  10]+0.009*[#  13]+
          +0.001*[#  16]+0.001*[#  19]+
    |psi|^2 = 0.999
==== e(   3) =     3.30556 eV ==== 
     psi = 0.149*[#  16]+0.149*[#  19]+0.102*[#  17]+0.102*[#  18]+0.102*[#  20]+
          +0.071*[#   9]+0.053*[#   2]+0.053*[#   3]+0.053*[#   4]+0.053*[#   6]+
          +0.053*[#   7]+0.053*[#   8]+0.002*[#  11]+0.002*[#  12]+0.002*[#  14]+
          +0.001*[#   1]+0.001*[#   5]+
    |psi|^2 = 0.999
==== e(   4) =     4.16957 eV ==== 
     psi = 0.132*[#  17]+0.132*[#  18]+0.132*[#  20]+0.100*[#  16]+0.100*[#  19]+
          +0.052*[#   2]+0.052*[#   3]+0.052*[#   4]+0.052*[#   6]+0.052*[#   7]+
          +0.052*[#   8]+0.049*[#  15]+0.015*[#   1]+0.015*[#   5]+0.004*[#  10]+
          +0.004*[#  13]+
    |psi|^2 = 0.998
==== e(   5) =     4.38169 eV ==== 
     psi = 0.233*[#  16]+0.233*[#  19]+0.061*[#   2]+0.061*[#   3]+0.061*[#   4]+
          +0.061*[#   6]+0.061*[#   7]+0.061*[#   8]+0.059*[#  15]+0.025*[#  17]+
          +0.025*[#  18]+0.025*[#  20]+0.014*[#  10]+0.014*[#  13]+0.005*[#   1]+
          +0.005*[#   5]+
    |psi|^2 = 0.999
==== e(   6) =     4.82621 eV ==== 
     psi = 0.174*[#  17]+0.174*[#  18]+0.174*[#  20]+0.079*[#  16]+0.079*[#  19]+
          +0.034*[#   2]+0.034*[#   3]+0.034*[#   4]+0.034*[#   6]+0.034*[#   7]+
          +0.034*[#   8]+0.030*[#  11]+0.030*[#  12]+0.030*[#  14]+0.018*[#   9]+
          +0.002*[#  10]+0.002*[#  13]+
    |psi|^2 = 0.998
==== e(   7) =     5.21049 eV ==== 
     psi = 0.249*[#  17]+0.249*[#  18]+0.249*[#  20]+0.035*[#   2]+0.035*[#   3]+
          +0.035*[#   4]+0.035*[#   6]+0.035*[#   7]+0.035*[#   8]+0.019*[#  16]+
          +0.019*[#  19]+
    |psi|^2 = 0.998
==== e(   8) =     6.20567 eV ==== 
     psi = 0.087*[#   2]+0.087*[#   3]+0.087*[#   4]+0.087*[#   6]+0.087*[#   7]+
          +0.087*[#   8]+0.085*[#  16]+0.085*[#  19]+0.071*[#  11]+0.071*[#  12]+
          +0.071*[#  14]+0.017*[#   1]+0.017*[#   5]+0.015*[#   9]+0.013*[#  10]+
          +0.013*[#  13]+0.004*[#  17]+0.004*[#  18]+0.004*[#  20]+
    |psi|^2 = 0.990
==== e(   9) =     6.51731 eV ==== 
     psi = 0.141*[#  17]+0.141*[#  18]+0.141*[#  20]+0.069*[#   2]+0.069*[#   3]+
          +0.069*[#   4]+0.069*[#   6]+0.069*[#   7]+0.069*[#   8]+0.058*[#  15]+
          +0.017*[#  16]+0.017*[#  19]+0.012*[#  11]+0.012*[#  12]+0.012*[#  14]+
          +0.010*[#  10]+0.010*[#  13]+0.006*[#   1]+0.006*[#   5]+
    |psi|^2 = 0.994
==== e(  10) =     7.52588 eV ==== 
     psi = 0.117*[#   2]+0.117*[#   3]+0.117*[#   4]+0.117*[#   6]+0.117*[#   7]+
          +0.117*[#   8]+0.050*[#  17]+0.050*[#  18]+0.050*[#  20]+0.037*[#   9]+
          +0.016*[#  11]+0.016*[#  12]+0.016*[#  14]+0.010*[#  16]+0.010*[#  19]+
          +0.008*[#   1]+0.008*[#   5]+0.006*[#  10]+0.006*[#  13]+
    |psi|^2 = 0.985
==== e(  11) =     8.28681 eV ==== 
     psi = 0.148*[#  16]+0.148*[#  19]+0.085*[#   2]+0.085*[#   3]+0.085*[#   4]+
          +0.085*[#   6]+0.085*[#   7]+0.085*[#   8]+0.053*[#  10]+0.053*[#  13]+
          +0.031*[#   9]+0.024*[#   1]+0.024*[#   5]+
    |psi|^2 = 0.991
==== e(  12) =     8.63131 eV ==== 
     psi = 0.105*[#   2]+0.105*[#   3]+0.105*[#   4]+0.105*[#   6]+0.105*[#   7]+
          +0.105*[#   8]+0.105*[#  17]+0.105*[#  18]+0.105*[#  20]+0.012*[#  16]+
          +0.012*[#  19]+0.005*[#  10]+0.005*[#  13]+0.004*[#  15]+
    |psi|^2 = 0.985
==== e(  13) =     9.39499 eV ==== 
     psi = 0.114*[#  16]+0.114*[#  19]+0.114*[#   2]+0.114*[#   3]+0.114*[#   4]+
          +0.114*[#   6]+0.114*[#   7]+0.114*[#   8]+0.020*[#  10]+0.020*[#  13]+
          +0.011*[#  17]+0.011*[#  18]+0.011*[#  20]+0.001*[#  11]+0.001*[#  12]+
          +0.001*[#  14]+
    |psi|^2 = 0.986
==== e(  14) =     9.95968 eV ==== 
     psi = 0.222*[#  11]+0.222*[#  12]+0.222*[#  14]+0.051*[#   2]+0.051*[#   3]+
          +0.051*[#   4]+0.051*[#   6]+0.051*[#   7]+0.051*[#   8]+0.012*[#   9]+
          +0.002*[#  17]+0.002*[#  18]+0.002*[#  20]+0.001*[#   1]+0.001*[#   5]+
    |psi|^2 = 0.995
==== e(  15) =    12.93034 eV ==== 
     psi = 0.193*[#  11]+0.193*[#  12]+0.193*[#  14]+0.142*[#  10]+0.142*[#  13]+
          +0.063*[#  15]+0.019*[#   1]+0.019*[#   5]+0.004*[#   2]+0.004*[#   3]+
          +0.004*[#   4]+0.004*[#   6]+0.004*[#   7]+0.004*[#   8]+0.002*[#  17]+
          +0.002*[#  18]+0.002*[#  20]+
    |psi|^2 = 0.994
==== e(  16) =    13.33720 eV ==== 
     psi = 0.244*[#  11]+0.244*[#  12]+0.244*[#  14]+0.096*[#  10]+0.096*[#  13]+
          +0.012*[#   2]+0.012*[#   3]+0.012*[#   4]+0.012*[#   6]+0.012*[#   7]+
          +0.012*[#   8]+
    |psi|^2 = 0.996
==== e(  17) =    13.92317 eV ==== 
     psi = 0.231*[#  10]+0.231*[#  13]+0.124*[#  11]+0.124*[#  12]+0.124*[#  14]+
          +0.058*[#  15]+0.025*[#   1]+0.025*[#   5]+0.008*[#   2]+0.008*[#   3]+
          +0.008*[#   4]+0.008*[#   6]+0.008*[#   7]+0.008*[#   8]+
    |psi|^2 = 0.994
==== e(  18) =    14.32269 eV ==== 
     psi = 0.319*[#  10]+0.319*[#  13]+0.081*[#  11]+0.081*[#  12]+0.081*[#  14]+
          +0.017*[#   9]+0.014*[#   2]+0.014*[#   3]+0.014*[#   4]+0.014*[#   6]+
          +0.014*[#   7]+0.014*[#   8]+0.005*[#   1]+0.005*[#   5]+
    |psi|^2 = 0.990
==== e(  19) =    16.37099 eV ==== 
     psi = 0.508*[#  15]+0.063*[#  10]+0.063*[#  13]+0.045*[#   2]+0.045*[#   3]+
          +0.045*[#   4]+0.045*[#   6]+0.045*[#   7]+0.045*[#   8]+0.032*[#   1]+
          +0.032*[#   5]+
    |psi|^2 = 0.973
==== e(  20) =    16.49770 eV ==== 
     psi = 0.598*[#   9]+0.051*[#   1]+0.051*[#   5]+0.040*[#   2]+0.040*[#   3]+
          +0.040*[#   4]+0.040*[#   6]+0.040*[#   7]+0.040*[#   8]+0.007*[#  10]+
          +0.007*[#  13]+0.003*[#  16]+0.003*[#  19]+
    |psi|^2 = 0.962
==== e(  21) =    22.42758 eV ==== 
     psi = 0.001*[#   2]+0.001*[#   3]+0.001*[#   4]+0.001*[#   6]+0.001*[#   7]+
          +0.001*[#   8]+
    |psi|^2 = 0.012
==== e(  22) =    22.53469 eV ==== 
     psi = 0.003*[#  15]+0.002*[#   2]+0.002*[#   3]+0.002*[#   4]+0.002*[#   6]+
          +0.002*[#   7]+0.002*[#   8]+0.001*[#  11]+0.001*[#  12]+0.001*[#  14]+
    |psi|^2 = 0.019
==== e(  23) =    23.08719 eV ==== 
     psi = 0.006*[#  15]+0.001*[#   2]+0.001*[#   3]+0.001*[#   4]+0.001*[#   6]+
          +0.001*[#   7]+0.001*[#   8]+
    |psi|^2 = 0.017
==== e(  24) =    23.50492 eV ==== 
     psi = 0.019*[#   9]+0.002*[#   2]+0.002*[#   3]+0.002*[#   4]+0.002*[#   6]+
          +0.002*[#   7]+0.002*[#   8]+
    |psi|^2 = 0.033

 k =  -0.2500000000 -0.2500000000 -0.2500000000
==== e(   1) =    -8.07008 eV ==== 
     psi = 0.360*[#   1]+0.360*[#   5]+0.275*[#  15]+
    |psi|^2 = 0.999
==== e(   2) =    -8.02235 eV ==== 
     psi = 0.365*[#   1]+0.365*[#   5]+0.267*[#   9]+
    |psi|^2 = 0.999
==== e(   3) =     3.85734 eV ==== 
     psi = 0.159*[#  17]+0.159*[#  18]+0.159*[#  20]+0.072*[#  15]+0.065*[#   2]+
          +0.065*[#   3]+0.065*[#   4]+0.065*[#   6]+0.065*[#   7]+0.065*[#   8]+
          +0.029*[#   1]+0.029*[#   5]+
    |psi|^2 = 0.996
==== e(   4) =     3.94861 eV ==== 
     psi = 0.250*[#  16]+0.250*[#  19]+0.106*[#  17]+0.106*[#  18]+0.106*[#  20]+
          +0.030*[#   2]+0.030*[#   3]+0.030*[#   4]+0.030*[#   6]+0.030*[#   7]+
          +0.030*[#   8]+
    |psi|^2 = 0.999
==== e(   5) =     3.94861 eV ==== 
     psi = 0.250*[#  16]+0.250*[#  19]+0.106*[#  17]+0.106*[#  18]+0.106*[#  20]+
          +0.030*[#   2]+0.030*[#   3]+0.030*[#   4]+0.030*[#   6]+0.030*[#   7]+
          +0.030*[#   8]+
    |psi|^2 = 0.999
==== e(   6) =     4.69665 eV ==== 
     psi = 0.097*[#  11]+0.097*[#  12]+0.097*[#  14]+0.093*[#   2]+0.093*[#   3]+
          +0.093*[#   4]+0.093*[#   6]+0.093*[#   7]+0.093*[#   8]+0.088*[#   9]+
          +0.028*[#   1]+0.028*[#   5]+
    |psi|^2 = 0.993
==== e(   7) =     5.58026 eV ==== 
     psi = 0.224*[#  17]+0.224*[#  18]+0.224*[#  20]+0.143*[#  16]+0.143*[#  19]+
          +0.007*[#   2]+0.007*[#   3]+0.007*[#   4]+0.007*[#   6]+0.007*[#   7]+
          +0.007*[#   8]+
    |psi|^2 = 0.999
==== e(   8) =     5.58026 eV ==== 
     psi = 0.224*[#  17]+0.224*[#  18]+0.224*[#  20]+0.143*[#  16]+0.143*[#  19]+
          +0.007*[#   2]+0.007*[#   3]+0.007*[#   4]+0.007*[#   6]+0.007*[#   7]+
          +0.007*[#   8]+
    |psi|^2 = 0.999
==== e(   9) =     7.47853 eV ==== 
     psi = 0.137*[#   2]+0.137*[#   3]+0.137*[#   4]+0.137*[#   6]+0.137*[#   7]+
          +0.137*[#   8]+0.074*[#  10]+0.074*[#  13]+0.009*[#  11]+0.009*[#  12]+
          +0.009*[#  14]+
    |psi|^2 = 0.996
==== e(  10) =     7.47853 eV ==== 
     psi = 0.137*[#   2]+0.137*[#   3]+0.137*[#   4]+0.137*[#   6]+0.137*[#   7]+
          +0.137*[#   8]+0.074*[#  10]+0.074*[#  13]+0.009*[#  11]+0.009*[#  12]+
          +0.009*[#  14]+
    |psi|^2 = 0.996
==== e(  11) =     8.26011 eV ==== 
     psi = 0.173*[#  17]+0.173*[#  18]+0.173*[#  20]+0.087*[#  15]+0.060*[#   2]+
          +0.060*[#   3]+0.060*[#   4]+0.060*[#   6]+0.060*[#   7]+0.060*[#   8]+
          +0.015*[#   1]+0.015*[#   5]+
    |psi|^2 = 0.994
==== e(  12) =     9.68329 eV ==== 
     psi = 0.234*[#  11]+0.234*[#  12]+0.234*[#  14]+0.062*[#   9]+0.036*[#   2]+
          +0.036*[#   3]+0.036*[#   4]+0.036*[#   6]+0.036*[#   7]+0.036*[#   8]+
          +0.009*[#   1]+0.009*[#   5]+
    |psi|^2 = 0.996
==== e(  13) =     9.70832 eV ==== 
     psi = 0.128*[#   2]+0.128*[#   3]+0.128*[#   4]+0.128*[#   6]+0.128*[#   7]+
          +0.128*[#   8]+0.106*[#  16]+0.106*[#  19]+0.002*[#  17]+0.002*[#  18]+
          +0.002*[#  20]+
    |psi|^2 = 0.989
==== e(  14) =     9.70832 eV ==== 
     psi = 0.128*[#   2]+0.128*[#   3]+0.128*[#   4]+0.128*[#   6]+0.128*[#   7]+
          +0.128*[#   8]+0.106*[#  16]+0.106*[#  19]+0.002*[#  17]+0.002*[#  18]+
          +0.002*[#  20]+
    |psi|^2 = 0.989
==== e(  15) =    13.23098 eV ==== 
     psi = 0.273*[#  11]+0.273*[#  12]+0.273*[#  14]+0.047*[#  10]+0.047*[#  13]+
          +0.014*[#   2]+0.014*[#   3]+0.014*[#   4]+0.014*[#   6]+0.014*[#   7]+
          +0.014*[#   8]+
    |psi|^2 = 0.998
==== e(  16) =    13.23098 eV ==== 
     psi = 0.273*[#  11]+0.273*[#  12]+0.273*[#  14]+0.047*[#  10]+0.047*[#  13]+
          +0.014*[#   2]+0.014*[#   3]+0.014*[#   4]+0.014*[#   6]+0.014*[#   7]+
          +0.014*[#   8]+
    |psi|^2 = 0.998
==== e(  17) =    14.13416 eV ==== 
     psi = 0.377*[#  10]+0.377*[#  13]+0.051*[#  11]+0.051*[#  12]+0.051*[#  14]+
          +0.014*[#   2]+0.014*[#   3]+0.014*[#   4]+0.014*[#   6]+0.014*[#   7]+
          +0.014*[#   8]+
    |psi|^2 = 0.991
==== e(  18) =    14.13416 eV ==== 
     psi = 0.377*[#  10]+0.377*[#  13]+0.051*[#  11]+0.051*[#  12]+0.051*[#  14]+
          +0.014*[#   2]+0.014*[#   3]+0.014*[#   4]+0.014*[#   6]+0.014*[#   7]+
          +0.014*[#   8]+
    |psi|^2 = 0.991
==== e(  19) =    14.52438 eV ==== 
     psi = 0.553*[#  15]+0.094*[#   1]+0.094*[#   5]+0.038*[#   2]+0.038*[#   3]+
          +0.038*[#   4]+0.038*[#   6]+0.038*[#   7]+0.038*[#   8]+
    |psi|^2 = 0.970
==== e(  20) =    14.91059 eV ==== 
     psi = 0.555*[#   9]+0.094*[#   1]+0.094*[#   5]+0.034*[#   2]+0.034*[#   3]+
          +0.034*[#   4]+0.034*[#   6]+0.034*[#   7]+0.034*[#   8]+
    |psi|^2 = 0.950
==== e(  21) =    22.58906 eV ==== 
     psi = 0.010*[#  15]+0.003*[#   2]+0.003*[#   3]+0.003*[#   4]+0.003*[#   6]+
          +0.003*[#   7]+0.003*[#   8]+
    |psi|^2 = 0.028
==== e(  22) =    22.66815 eV ==== 
     psi = 0.024*[#   9]+0.003*[#   2]+0.003*[#   3]+0.003*[#   4]+0.003*[#   6]+
          +0.003*[#   7]+0.003*[#   8]+0.002*[#   1]+0.002*[#   5]+
    |psi|^2 = 0.049
==== e(  23) =    26.43855 eV ==== 
     psi = 0.002*[#  10]+0.002*[#  13]+
    |psi|^2 = 0.007
==== e(  24) =    26.43855 eV ==== 
     psi = 0.002*[#  10]+0.002*[#  13]+
    |psi|^2 = 0.007

Lowdin Charges: 

     Atom #   1: total charge =   7.0754, s =  1.8343, p =  5.2412, d =  0.0000, 
                 spin up      =   3.5377, s =  0.9171, p =  2.6206, d =  0.0000, 
                 spin down    =   3.5377, s =  0.9171, p =  2.6206, d =  0.0000, 
                 polarization =   0.0000, s =  0.0000, p =  0.0000, d =  0.0000, 
     Atom #   2: total charge =   7.0754, s =  1.8343, p =  5.2412, d =  0.0000, 
                 spin up      =   3.5377, s =  0.9171, p =  2.6206, d =  0.0000, 
                 spin down    =   3.5377, s =  0.9171, p =  2.6206, d =  0.0000, 
                 polarization =   0.0000, s =  0.0000, p =  0.0000, d =  0.0000, 
     Atom #   3: total charge =   6.8063, s =  0.4813, p =  0.0000, d =  6.3249, 
                 spin up      =   5.2111, s =  0.2483, p =  0.0000, d =  4.9628, 
                 spin down    =   1.5951, s =  0.2330, p =  0.0000, d =  1.3621, 
                 polarization =   3.6160, s =  0.0153, p =  0.0000, d =  3.6007, 
     Atom #   4: total charge =   6.8065, s =  0.4813, p =  0.0000, d =  6.3251, 
                 spin up      =   1.5953, s =  0.2330, p =  0.0000, d =  1.3623, 
                 spin down    =   5.2111, s =  0.2483, p =  0.0000, d =  4.9628, 
                 polarization =  -3.6158, s = -0.0153, p =  0.0000, d = -3.6005, 
     Spilling Parameter:   0.0084
