
     Program PWSCF v.5.0        starts on 16Jun2012 at 13:39:17 

     This program is part of the open-source Quantum ESPRESSO suite
     for quantum simulation of materials; please cite
         "P. Giannozzi et al., J. Phys.:Condens. Matter 21 395502 (2009);
          URL http://www.quantum-espresso.org", 
     in publications or presentations arising from this work. More details at
     http://www.quantum-espresso.org/quote.php

     Parallel version (MPI), running on     4 processors
     K-points division:     npool     =    4

     Current dimensions of program PWSCF are:
     Max number of different atomic species (ntypx) = 10
     Max number of k-points (npk) =  40000
     Max angular momentum in pseudopotentials (lmaxx) =  3
     Waiting for input...
     Reading input from standard input
               file O.pbe-rrkjus.UPF: wavefunction(s)  2S renormalized
               file Fe.pbe-nd-rrkjus.UPF: wavefunction(s)  4S renormalized
               file Fe.pbe-nd-rrkjus.UPF: wavefunction(s)  4S renormalized

     Subspace diagonalization in iterative solution of the eigenvalue problem:
     a serial algorithm will be used

 
     G-vector sticks info
     --------------------
     sticks:   dense  smooth     PW     G-vecs:    dense   smooth      PW
     Sum        1061     539    171                17255     6111    1141
 


     bravais-lattice index     =            0
     lattice parameter (alat)  =       8.1900  a.u.
     unit-cell volume          =     274.6766 (a.u.)^3
     number of atoms/cell      =            4
     number of atomic types    =            3
     number of electrons       =        28.00
     number of Kohn-Sham states=           18
     kinetic-energy cutoff     =      30.0000  Ry
     charge density cutoff     =     240.0000  Ry
     convergence threshold     =      1.0E-06
     mixing beta               =       0.3000
     number of iterations used =            8  plain     mixing
     Exchange-correlation      =  SLA  PW   PBE  PBE ( 1 4 3 4 0)
     EXX-fraction              =        0.00

     celldm(1)=   8.190000  celldm(2)=   0.000000  celldm(3)=   0.000000
     celldm(4)=   0.000000  celldm(5)=   0.000000  celldm(6)=   0.000000

     crystal axes: (cart. coord. in units of alat)
               a(1) = (   0.500000   0.500000   1.000000 )  
               a(2) = (   0.500000   1.000000   0.500000 )  
               a(3) = (   1.000000   0.500000   0.500000 )  

     reciprocal axes: (cart. coord. in units 2 pi/alat)
               b(1) = ( -0.500000 -0.500000  1.500000 )  
               b(2) = ( -0.500000  1.500000 -0.500000 )  
               b(3) = (  1.500000 -0.500000 -0.500000 )  


     PseudoPot. # 1 for O  read from file:
     ../pseudo/O.pbe-rrkjus.UPF
     MD5 check sum: 390ba29e75625707450f3bd3f0eb6be9
     Pseudo is Ultrasoft, Zval =  6.0
     Generated by new atomic code, or converted to UPF format
     Using radial grid of 1269 points,  4 beta functions with: 
                l(1) =   0
                l(2) =   0
                l(3) =   1
                l(4) =   1
     Q(r) pseudized with 0 coefficients 


     PseudoPot. # 2 for Fe read from file:
     ../pseudo/Fe.pbe-nd-rrkjus.UPF
     MD5 check sum: 23c640529ef232ac9996b4ec1b0ce2fd
     Pseudo is Ultrasoft + core correction, Zval =  8.0
     Generated by new atomic code, or converted to UPF format
     Using radial grid of  957 points,  6 beta functions with: 
                l(1) =   0
                l(2) =   0
                l(3) =   1
                l(4) =   1
                l(5) =   2
                l(6) =   2
     Q(r) pseudized with 0 coefficients 


     PseudoPot. # 3 for Fe read from file:
     ../pseudo/Fe.pbe-nd-rrkjus.UPF
     MD5 check sum: 23c640529ef232ac9996b4ec1b0ce2fd
     Pseudo is Ultrasoft + core correction, Zval =  8.0
     Generated by new atomic code, or converted to UPF format
     Using radial grid of  957 points,  6 beta functions with: 
                l(1) =   0
                l(2) =   0
                l(3) =   1
                l(4) =   1
                l(5) =   2
                l(6) =   2
     Q(r) pseudized with 0 coefficients 


     atomic species   valence    mass     pseudopotential
        O              6.00     1.00000     O ( 1.00)
        Fe1            8.00     1.00000     Fe( 1.00)
        Fe2            8.00     1.00000     Fe( 1.00)

     Starting magnetic structure 
     atomic species   magnetization
        O            0.000
        Fe1          0.500
        Fe2         -0.500
 -----
     simplified LDA+U calculation, Hubbard_lmax = 2
     atomic species  L   Hubbard U  Hubbard alpha
        Fe1          2    4.300000    0.000000
        Fe2          2    4.300000    0.000000
 -----

     12 Sym. Ops., with inversion, found



   Cartesian axes

     site n.     atom                  positions (alat units)
         1           O   tau(   1) = (   0.5000000   0.5000000   0.5000000  )
         2           O   tau(   2) = (   1.5000000   1.5000000   1.5000000  )
         3           Fe1 tau(   3) = (   0.0000000   0.0000000   0.0000000  )
         4           Fe2 tau(   4) = (   1.0000000   1.0000000   1.0000000  )

     number of k points=    26  Methfessel-Paxton smearing, width (Ry)=  0.0200
                       cart. coord. in units 2pi/alat
        k(    1) = (   0.0000000   0.0000000   0.0000000), wk =   0.0156250
        k(    2) = (   0.3750000  -0.1250000  -0.1250000), wk =   0.0937500
        k(    3) = (  -0.7500000   0.2500000   0.2500000), wk =   0.0468750
        k(    4) = (   0.2500000   0.2500000  -0.2500000), wk =   0.0937500
        k(    5) = (  -0.8750000   0.6250000   0.1250000), wk =   0.1875000
        k(    6) = (  -0.5000000   0.5000000   0.0000000), wk =   0.0937500
        k(    7) = (  -0.5000000  -0.5000000   0.5000000), wk =   0.0468750
        k(    8) = (   0.1250000   0.1250000   0.1250000), wk =   0.0312500
        k(    9) = (  -1.0000000   0.5000000   0.5000000), wk =   0.0937500
        k(   10) = (  -0.6250000   0.3750000   0.3750000), wk =   0.0937500
        k(   11) = (  -0.6250000  -0.6250000   0.8750000), wk =   0.0937500
        k(   12) = (  -0.2500000  -0.7500000   0.7500000), wk =   0.0937500
        k(   13) = (  -0.2500000  -0.2500000  -0.2500000), wk =   0.0156250
        k(   14) = (   0.0000000   0.0000000   0.0000000), wk =   0.0156250
        k(   15) = (   0.3750000  -0.1250000  -0.1250000), wk =   0.0937500
        k(   16) = (  -0.7500000   0.2500000   0.2500000), wk =   0.0468750
        k(   17) = (   0.2500000   0.2500000  -0.2500000), wk =   0.0937500
        k(   18) = (  -0.8750000   0.6250000   0.1250000), wk =   0.1875000
        k(   19) = (  -0.5000000   0.5000000   0.0000000), wk =   0.0937500
        k(   20) = (  -0.5000000  -0.5000000   0.5000000), wk =   0.0468750
        k(   21) = (   0.1250000   0.1250000   0.1250000), wk =   0.0312500
        k(   22) = (  -1.0000000   0.5000000   0.5000000), wk =   0.0937500
        k(   23) = (  -0.6250000   0.3750000   0.3750000), wk =   0.0937500
        k(   24) = (  -0.6250000  -0.6250000   0.8750000), wk =   0.0937500
        k(   25) = (  -0.2500000  -0.7500000   0.7500000), wk =   0.0937500
        k(   26) = (  -0.2500000  -0.2500000  -0.2500000), wk =   0.0156250

     Dense  grid:    17255 G-vectors     FFT dimensions: (  50,  50,  50)

     Smooth grid:     6111 G-vectors     FFT dimensions: (  36,  36,  36)

     Largest allocated arrays     est. size (Mb)     dimensions
        Kohn-Sham Wavefunctions         0.21 Mb     (    780,   18)
        Atomic wavefunctions            0.24 Mb     (    780,   20)
        NL pseudopotentials             0.62 Mb     (    780,   52)
        Each V/rho on FFT grid          3.81 Mb     ( 125000,   2)
        Each G-vector array             0.13 Mb     (  17255)
        G-vector shells                 0.00 Mb     (    342)
     Largest temporary arrays     est. size (Mb)     dimensions
        Auxiliary wavefunctions         0.86 Mb     (    780,   72)
        Each subspace H/S matrix        0.08 Mb     (  72,  72)
        Each <psi_i|beta_j> matrix      0.01 Mb     (     52,   18)
        Arrays for rho mixing          15.26 Mb     ( 125000,   8)

     Check: negative/imaginary core charge=   -0.000003    0.000000

     Initial potential from superposition of free atoms

     starting charge   27.99873, renormalised to   28.00000
     Number of +U iterations with fixed ns =  0
     Starting occupations:
 --- enter write_ns ---
 LDA+U parameters:
U( 2)     =  4.30000000
alpha( 2) =  0.00000000
U( 3)     =  4.30000000
alpha( 3) =  0.00000000
atom    3   Tr[ns(na)] (up, down, total) =   5.00000  1.00000  6.00000
   spin  1
    eigenvalues: 
  1.000  1.000  1.000  1.000  1.000
    eigenvectors:
  1.000  0.000  0.000  0.000  0.000
  0.000  1.000  0.000  0.000  0.000
  0.000  0.000  1.000  0.000  0.000
  0.000  0.000  0.000  1.000  0.000
  0.000  0.000  0.000  0.000  1.000
    occupations:
  1.000  0.000  0.000  0.000  0.000
  0.000  1.000  0.000  0.000  0.000
  0.000  0.000  1.000  0.000  0.000
  0.000  0.000  0.000  1.000  0.000
  0.000  0.000  0.000  0.000  1.000
   spin  2
    eigenvalues: 
  0.200  0.200  0.200  0.200  0.200
    eigenvectors:
  1.000  0.000  0.000  0.000  0.000
  0.000  1.000  0.000  0.000  0.000
  0.000  0.000  1.000  0.000  0.000
  0.000  0.000  0.000  1.000  0.000
  0.000  0.000  0.000  0.000  1.000
    occupations:
  0.200  0.000  0.000  0.000  0.000
  0.000  0.200  0.000  0.000  0.000
  0.000  0.000  0.200  0.000  0.000
  0.000  0.000  0.000  0.200  0.000
  0.000  0.000  0.000  0.000  0.200
atomic mag. moment =     4.000000
atom    4   Tr[ns(na)] (up, down, total) =   1.00000  5.00000  6.00000
   spin  1
    eigenvalues: 
  0.200  0.200  0.200  0.200  0.200
    eigenvectors:
  1.000  0.000  0.000  0.000  0.000
  0.000  1.000  0.000  0.000  0.000
  0.000  0.000  1.000  0.000  0.000
  0.000  0.000  0.000  1.000  0.000
  0.000  0.000  0.000  0.000  1.000
    occupations:
  0.200  0.000  0.000  0.000  0.000
  0.000  0.200  0.000  0.000  0.000
  0.000  0.000  0.200  0.000  0.000
  0.000  0.000  0.000  0.200  0.000
  0.000  0.000  0.000  0.000  0.200
   spin  2
    eigenvalues: 
  1.000  1.000  1.000  1.000  1.000
    eigenvectors:
  1.000  0.000  0.000  0.000  0.000
  0.000  1.000  0.000  0.000  0.000
  0.000  0.000  1.000  0.000  0.000
  0.000  0.000  0.000  1.000  0.000
  0.000  0.000  0.000  0.000  1.000
    occupations:
  1.000  0.000  0.000  0.000  0.000
  0.000  1.000  0.000  0.000  0.000
  0.000  0.000  1.000  0.000  0.000
  0.000  0.000  0.000  1.000  0.000
  0.000  0.000  0.000  0.000  1.000
atomic mag. moment =    -4.000000
N of occupied +U levels =  12.0000000
 --- exit write_ns ---
 Atomic wfc used for LDA+U Projector are NOT orthogonalized
     Starting wfc are   20 randomized atomic wfcs

     total cpu time spent up to now is        3.0 secs

     per-process dynamical memory:    26.8 Mb

     Self-consistent Calculation

     iteration #  1     ecut=    30.00 Ry     beta=0.30
     Davidson diagonalization with overlap
     ethr =  1.00E-02,  avg # of iterations =  2.2
 --- enter write_ns ---
 LDA+U parameters:
U( 2)     =  4.30000000
alpha( 2) =  0.00000000
U( 3)     =  4.30000000
alpha( 3) =  0.00000000
atom    3   Tr[ns(na)] (up, down, total) =   4.99859  1.03545  6.03404
   spin  1
    eigenvalues: 
  0.999  0.999  0.999  1.000  1.000
    eigenvectors:
  0.000  0.022  0.002  0.553  0.423
  0.333  0.359  0.292  0.001  0.015
  0.333  0.028  0.622  0.014  0.002
  0.000  0.002  0.022  0.423  0.553
  0.333  0.589  0.062  0.009  0.007
    occupations:
  1.000  0.000  0.000  0.000  0.000
  0.000  0.999  0.000  0.000  0.000
  0.000  0.000  0.999  0.000  0.000
  0.000  0.000  0.000  1.000  0.000
  0.000  0.000  0.000  0.000  0.999
   spin  2
    eigenvalues: 
  0.164  0.164  0.202  0.253  0.253
    eigenvectors:
  0.035  0.949  0.000  0.014  0.003
  0.010  0.001  0.333  0.004  0.651
  0.006  0.005  0.333  0.445  0.211
  0.949  0.035  0.000  0.003  0.014
  0.000  0.011  0.333  0.534  0.121
    occupations:
  0.166 -0.005 -0.005  0.000 -0.009
 -0.005  0.235 -0.016 -0.008  0.016
 -0.005 -0.016  0.235  0.008  0.016
  0.000 -0.008  0.008  0.166  0.000
 -0.009  0.016  0.016  0.000  0.235
atomic mag. moment =     3.963140
atom    4   Tr[ns(na)] (up, down, total) =   1.03368  4.99853  6.03222
   spin  1
    eigenvalues: 
  0.164  0.164  0.202  0.252  0.252
    eigenvectors:
  0.969  0.014  0.000  0.015  0.002
  0.002  0.010  0.333  0.017  0.638
  0.004  0.007  0.333  0.393  0.262
  0.014  0.969  0.000  0.002  0.015
  0.012  0.000  0.333  0.573  0.082
    occupations:
  0.165 -0.005 -0.005  0.000 -0.009
 -0.005  0.234 -0.016 -0.008  0.016
 -0.005 -0.016  0.234  0.008  0.016
  0.000 -0.008  0.008  0.165  0.000
 -0.009  0.016  0.016  0.000  0.234
   spin  2
    eigenvalues: 
  0.999  0.999  0.999  1.000  1.000
    eigenvectors:
  0.000  0.021  0.002  0.657  0.319
  0.333  0.360  0.291  0.000  0.016
  0.333  0.028  0.623  0.013  0.003
  0.000  0.002  0.021  0.319  0.657
  0.333  0.588  0.062  0.011  0.005
    occupations:
  1.000  0.000  0.000  0.000  0.000
  0.000  0.999  0.000  0.000  0.000
  0.000  0.000  0.999  0.000  0.000
  0.000  0.000  0.000  1.000  0.000
  0.000  0.000  0.000  0.000  0.999
atomic mag. moment =    -3.964849
N of occupied +U levels =  12.0662611
 --- exit write_ns ---
 Modify starting ns matrices according to input values 
 --- enter write_ns ---
 LDA+U parameters:
U( 2)     =  4.30000000
alpha( 2) =  0.00000000
U( 3)     =  4.30000000
alpha( 3) =  0.00000000
atom    3   Tr[ns(na)] (up, down, total) =   4.99859  1.83357  6.83216
   spin  1
    eigenvalues: 
  0.999  0.999  0.999  1.000  1.000
    eigenvectors:
  0.000  0.019  0.005  0.231  0.745
  0.333  0.465  0.186  0.004  0.012
  0.333  0.001  0.650  0.016  0.000
  0.000  0.005  0.019  0.745  0.231
  0.333  0.510  0.140  0.004  0.012
    occupations:
  1.000  0.000  0.000  0.000  0.000
  0.000  0.999  0.000  0.000  0.000
  0.000  0.000  0.999  0.000  0.000
  0.000  0.000  0.000  1.000  0.000
  0.000  0.000  0.000  0.000  0.999
   spin  2
    eigenvalues: 
  0.164  0.164  0.253  0.253  1.000
    eigenvectors:
  0.928  0.055  0.014  0.003  0.000
  0.005  0.006  0.008  0.647  0.333
  0.001  0.010  0.424  0.232  0.333
  0.055  0.928  0.003  0.014  0.000
  0.011  0.001  0.551  0.105  0.333
    occupations:
  0.166 -0.005 -0.005  0.000 -0.009
 -0.005  0.501  0.250 -0.008 -0.250
 -0.005  0.250  0.501  0.008 -0.250
  0.000 -0.008  0.008  0.166  0.000
 -0.009 -0.250 -0.250  0.000  0.501
atomic mag. moment =     3.165022
atom    4   Tr[ns(na)] (up, down, total) =   1.83200  4.99853  6.83053
   spin  1
    eigenvalues: 
  0.164  0.164  0.252  0.252  1.000
    eigenvectors:
  0.937  0.046  0.015  0.003  0.000
  0.001  0.011  0.009  0.646  0.333
  0.005  0.006  0.421  0.234  0.333
  0.046  0.937  0.003  0.015  0.000
  0.011  0.001  0.552  0.103  0.333
    occupations:
  0.165 -0.005 -0.005  0.000 -0.009
 -0.005  0.500  0.250 -0.008 -0.250
 -0.005  0.250  0.500  0.008 -0.250
  0.000 -0.008  0.008  0.165  0.000
 -0.009 -0.250 -0.250  0.000  0.500
   spin  2
    eigenvalues: 
  0.999  0.999  0.999  1.000  1.000
    eigenvectors:
  0.000  0.022  0.002  0.719  0.258
  0.333  0.333  0.317  0.000  0.016
  0.333  0.040  0.611  0.012  0.004
  0.000  0.002  0.022  0.258  0.719
  0.333  0.603  0.048  0.012  0.004
    occupations:
  1.000  0.000  0.000  0.000  0.000
  0.000  0.999  0.000  0.000  0.000
  0.000  0.000  0.999  0.000  0.000
  0.000  0.000  0.000  1.000  0.000
  0.000  0.000  0.000  0.000  0.999
atomic mag. moment =    -3.166535
N of occupied +U levels =  13.6626924
 --- exit write_ns ---

     total cpu time spent up to now is        4.9 secs

     total energy              =    -174.53934892 Ry
     Harris-Foulkes estimate   =    -175.49264524 Ry
     estimated scf accuracy    <       2.59946049 Ry

     total magnetization       =     0.00 Bohr mag/cell
     absolute magnetization    =     8.74 Bohr mag/cell

     iteration #  2     ecut=    30.00 Ry     beta=0.30
     Davidson diagonalization with overlap
     ethr =  9.28E-03,  avg # of iterations =  2.7

     total cpu time spent up to now is        7.0 secs

     total energy              =    -175.10208759 Ry
     Harris-Foulkes estimate   =    -175.12618197 Ry
     estimated scf accuracy    <       0.29610900 Ry

     total magnetization       =     0.00 Bohr mag/cell
     absolute magnetization    =     7.31 Bohr mag/cell

     iteration #  3     ecut=    30.00 Ry     beta=0.30
     Davidson diagonalization with overlap
     ethr =  1.06E-03,  avg # of iterations =  1.6

     total cpu time spent up to now is        9.0 secs

     total energy              =    -175.15300820 Ry
     Harris-Foulkes estimate   =    -175.12574522 Ry
     estimated scf accuracy    <       0.10625712 Ry

     total magnetization       =     0.00 Bohr mag/cell
     absolute magnetization    =     7.49 Bohr mag/cell

     iteration #  4     ecut=    30.00 Ry     beta=0.30
     Davidson diagonalization with overlap
     ethr =  3.79E-04,  avg # of iterations =  2.3

     total cpu time spent up to now is       11.0 secs

     total energy              =    -175.16430503 Ry
     Harris-Foulkes estimate   =    -175.16464665 Ry
     estimated scf accuracy    <       0.00561229 Ry

     total magnetization       =    -0.01 Bohr mag/cell
     absolute magnetization    =     7.50 Bohr mag/cell

     iteration #  5     ecut=    30.00 Ry     beta=0.30
     Davidson diagonalization with overlap
     ethr =  2.00E-05,  avg # of iterations =  3.2

     total cpu time spent up to now is       13.2 secs

     total energy              =    -175.16603254 Ry
     Harris-Foulkes estimate   =    -175.16545984 Ry
     estimated scf accuracy    <       0.00121176 Ry

     total magnetization       =     0.01 Bohr mag/cell
     absolute magnetization    =     7.48 Bohr mag/cell

     iteration #  6     ecut=    30.00 Ry     beta=0.30
     Davidson diagonalization with overlap
     ethr =  4.33E-06,  avg # of iterations =  2.1

     total cpu time spent up to now is       15.2 secs

     total energy              =    -175.16645898 Ry
     Harris-Foulkes estimate   =    -175.16621559 Ry
     estimated scf accuracy    <       0.00044304 Ry

     total magnetization       =    -0.02 Bohr mag/cell
     absolute magnetization    =     7.48 Bohr mag/cell

     iteration #  7     ecut=    30.00 Ry     beta=0.30
     Davidson diagonalization with overlap
     ethr =  1.58E-06,  avg # of iterations =  2.1

     total cpu time spent up to now is       17.1 secs

     total energy              =    -175.16662279 Ry
     Harris-Foulkes estimate   =    -175.16651006 Ry
     estimated scf accuracy    <       0.00007696 Ry

     total magnetization       =     0.00 Bohr mag/cell
     absolute magnetization    =     7.48 Bohr mag/cell

     iteration #  8     ecut=    30.00 Ry     beta=0.30
     Davidson diagonalization with overlap
     ethr =  2.75E-07,  avg # of iterations =  3.2

     total cpu time spent up to now is       19.5 secs

     total energy              =    -175.16671862 Ry
     Harris-Foulkes estimate   =    -175.16666059 Ry
     estimated scf accuracy    <       0.00002340 Ry

     total magnetization       =     0.00 Bohr mag/cell
     absolute magnetization    =     7.48 Bohr mag/cell

     iteration #  9     ecut=    30.00 Ry     beta=0.30
     Davidson diagonalization with overlap
     ethr =  8.36E-08,  avg # of iterations =  2.5

     total cpu time spent up to now is       21.6 secs

     total energy              =    -175.16675592 Ry
     Harris-Foulkes estimate   =    -175.16672495 Ry
     estimated scf accuracy    <       0.00000278 Ry

     total magnetization       =     0.00 Bohr mag/cell
     absolute magnetization    =     7.48 Bohr mag/cell

     iteration # 10     ecut=    30.00 Ry     beta=0.30
     Davidson diagonalization with overlap
     ethr =  9.95E-09,  avg # of iterations =  3.4

     total cpu time spent up to now is       23.9 secs

     End of self-consistent calculation
 --- enter write_ns ---
 LDA+U parameters:
U( 2)     =  4.30000000
alpha( 2) =  0.00000000
U( 3)     =  4.30000000
alpha( 3) =  0.00000000
atom    3   Tr[ns(na)] (up, down, total) =   4.98908  1.65755  6.64663
   spin  1
    eigenvalues: 
  0.997  0.997  0.998  0.999  0.999
    eigenvectors:
  0.231  0.764  0.000  0.005  0.000
  0.001  0.002  0.333  0.032  0.632
  0.003  0.000  0.333  0.359  0.304
  0.764  0.231  0.000  0.000  0.005
  0.001  0.003  0.333  0.604  0.059
    occupations:
  0.997  0.000  0.000  0.000  0.000
  0.000  0.999  0.000  0.000  0.000
  0.000  0.000  0.999  0.000  0.000
  0.000  0.000  0.000  0.997  0.000
  0.000  0.000  0.000  0.000  0.999
   spin  2
    eigenvalues: 
  0.091  0.091  0.240  0.240  0.996
    eigenvectors:
  0.010  0.000  0.310  0.679  0.000
  0.099  0.561  0.001  0.005  0.333
  0.242  0.418  0.007  0.000  0.333
  0.000  0.010  0.679  0.310  0.000
  0.649  0.011  0.002  0.005  0.333
    occupations:
  0.238  0.006  0.006  0.000  0.012
  0.006  0.394  0.301  0.011 -0.301
  0.006  0.301  0.394 -0.011 -0.301
  0.000  0.011 -0.011  0.238  0.000
  0.012 -0.301 -0.301  0.000  0.394
atomic mag. moment =     3.331531
atom    4   Tr[ns(na)] (up, down, total) =   1.65752  4.98908  6.64661
   spin  1
    eigenvalues: 
  0.091  0.091  0.240  0.240  0.996
    eigenvectors:
  0.009  0.002  0.617  0.372  0.000
  0.010  0.650  0.000  0.007  0.333
  0.419  0.241  0.006  0.001  0.333
  0.002  0.009  0.372  0.617  0.000
  0.561  0.099  0.004  0.003  0.333
    occupations:
  0.238  0.006  0.006  0.000  0.012
  0.006  0.394  0.301  0.011 -0.301
  0.006  0.301  0.394 -0.011 -0.301
  0.000  0.011 -0.011  0.238  0.000
  0.012 -0.301 -0.301  0.000  0.394
   spin  2
    eigenvalues: 
  0.997  0.997  0.998  0.999  0.999
    eigenvectors:
  0.898  0.096  0.000  0.005  0.000
  0.000  0.003  0.333  0.062  0.601
  0.002  0.001  0.333  0.299  0.365
  0.096  0.898  0.000  0.000  0.005
  0.003  0.000  0.333  0.634  0.029
    occupations:
  0.997  0.000  0.000  0.000  0.000
  0.000  0.999  0.000  0.000  0.000
  0.000  0.000  0.999  0.000  0.000
  0.000  0.000  0.000  0.997  0.000
  0.000  0.000  0.000  0.000  0.999
atomic mag. moment =    -3.331558
N of occupied +U levels =  13.2932414
 --- exit write_ns ---

 ------ SPIN UP ------------


          k = 0.0000 0.0000 0.0000 (   731 PWs)   bands (ev):

    -8.5657  -7.3813   1.8820   3.8713   3.8713   5.5452   5.5452   7.1883
     8.2495   8.2844   8.2844   8.8367   8.8367  10.0692  12.0273  13.2868
    13.2868  14.3493

          k = 0.3750-0.1250-0.1250 (   758 PWs)   bands (ev):

    -8.1374  -7.4418   3.0275   3.8859   4.3150   4.5985   5.2247   6.5528
     6.8053   7.8151   7.9024   8.9560   9.1657   9.8926  13.1631  13.3662
    13.6734  14.4666

          k =-0.7500 0.2500 0.2500 (   764 PWs)   bands (ev):

    -7.9225  -7.2046   2.7515   3.9393   4.3518   4.6845   5.7025   6.0759
     6.4956   7.0394   7.6002   9.0098   9.4367   9.6301  13.1896  13.4336
    14.2560  14.6255

          k = 0.2500 0.2500-0.2500 (   756 PWs)   bands (ev):

    -8.0329  -7.5553   3.4070   3.5032   4.3614   4.6814   5.2190   6.4633
     6.7891   7.5442   7.6626   9.3829   9.4782   9.8738  13.0509  13.3178
    14.1704  14.4115

          k =-0.8750 0.6250 0.1250 (   767 PWs)   bands (ev):

    -7.6858  -7.4363   3.1639   3.7335   4.3633   4.5319   5.3121   6.0867
     6.5588   7.4438   7.6991   8.8757   8.9823   9.8834  13.1889  13.3716
    14.4431  14.5393

          k =-0.5000 0.5000 0.0000 (   759 PWs)   bands (ev):

    -7.6087  -7.5155   3.4301   3.5581   4.3209   4.6283   5.0894   6.0715
     6.5001   7.6668   7.7238   8.5291   9.2031   9.7824  13.2867  13.3172
    14.3258  14.6678

          k =-0.5000-0.5000 0.5000 (   780 PWs)   bands (ev):

    -7.7051  -7.3967   2.1981   4.3728   4.3987   4.6759   5.7031   5.9706
     7.0936   7.1098   7.5086   8.8373   9.2187   9.9962  13.2456  13.5186
    14.6749  14.7895

          k = 0.1250 0.1250 0.1250 (   748 PWs)   bands (ev):

    -8.4189  -7.6098   2.5528   3.9090   3.9090   5.5617   5.5617   6.2371
     7.7718   7.7718   8.1955   9.3745   9.3745   9.8851  13.0272  13.2601
    13.2601  14.2407

          k =-1.0000 0.5000 0.5000 (   754 PWs)   bands (ev):

    -8.0871  -7.5263   3.0338   4.3378   4.4446   4.4904   5.2062   6.4137
     6.7609   7.8319   7.9305   8.5902   8.9587   9.9833  12.9539  13.4061
    13.7556  14.5488

          k =-0.6250 0.3750 0.3750 (   764 PWs)   bands (ev):

    -7.8316  -7.2828   2.4439   4.1115   4.3618   4.8098   5.7029   5.9260
     6.8568   7.0735   7.5677   8.8564   9.3279   9.8506  13.2197  13.4790
    14.3907  14.7061

          k =-0.6250-0.6250 0.8750 (   757 PWs)   bands (ev):

    -7.9471  -7.6747   3.1958   4.0511   4.3859   4.9678   5.1990   6.0526
     6.7510   7.6108   7.6374   9.0572   9.3143   9.9522  12.9478  13.3670
    14.0022  14.4891

          k =-0.2500-0.7500 0.7500 (   764 PWs)   bands (ev):

    -7.7309  -7.3892   3.0311   3.7668   4.3174   4.5680   5.4820   6.1995
     6.5379   7.3236   7.7322   8.5724   9.2889   9.9469  13.1455  13.3697
    14.4350  14.5763

          k =-0.2500-0.2500-0.2500 (   748 PWs)   bands (ev):

    -8.0759  -8.0282   3.8548   3.9471   3.9471   4.6933   5.5800   5.5800
     7.4735   7.4735   8.2581   9.6816   9.7034   9.7034  13.2303  13.2303
    14.1333  14.1333

 ------ SPIN DOWN ----------


          k = 0.0000 0.0000 0.0000 (   731 PWs)   bands (ev):

    -8.5658  -7.3813   1.8820   3.8714   3.8714   5.5454   5.5454   7.1883
     8.2495   8.2844   8.2844   8.8367   8.8367  10.0692  12.0273  13.2866
    13.2866  14.3492

          k = 0.3750-0.1250-0.1250 (   758 PWs)   bands (ev):

    -8.1374  -7.4418   3.0275   3.8860   4.3151   4.5985   5.2248   6.5528
     6.8052   7.8151   7.9024   8.9561   9.1657   9.8926  13.1629  13.3661
    13.6734  14.4665

          k =-0.7500 0.2500 0.2500 (   764 PWs)   bands (ev):

    -7.9225  -7.2046   2.7516   3.9393   4.3519   4.6844   5.7027   6.0758
     6.4956   7.0394   7.6003   9.0099   9.4367   9.6300  13.1895  13.4335
    14.2559  14.6255

          k = 0.2500 0.2500-0.2500 (   756 PWs)   bands (ev):

    -8.0329  -7.5553   3.4070   3.5033   4.3616   4.6815   5.2192   6.4633
     6.7891   7.5442   7.6626   9.3829   9.4782   9.8737  13.0507  13.3177
    14.1703  14.4114

          k =-0.8750 0.6250 0.1250 (   767 PWs)   bands (ev):

    -7.6859  -7.4363   3.1640   3.7335   4.3633   4.5319   5.3121   6.0867
     6.5589   7.4438   7.6991   8.8757   8.9823   9.8833  13.1888  13.3715
    14.4430  14.5393

          k =-0.5000 0.5000 0.0000 (   759 PWs)   bands (ev):

    -7.6087  -7.5155   3.4302   3.5582   4.3209   4.6284   5.0895   6.0714
     6.5002   7.6669   7.7238   8.5291   9.2032   9.7823  13.2865  13.3171
    14.3258  14.6677

          k =-0.5000-0.5000 0.5000 (   780 PWs)   bands (ev):

    -7.7051  -7.3967   2.1982   4.3729   4.3988   4.6759   5.7033   5.9707
     7.0936   7.1098   7.5087   8.8373   9.2187   9.9962  13.2454  13.5184
    14.6749  14.7895

          k = 0.1250 0.1250 0.1250 (   748 PWs)   bands (ev):

    -8.4190  -7.6099   2.5528   3.9092   3.9092   5.5618   5.5618   6.2371
     7.7717   7.7717   8.1954   9.3745   9.3745   9.8851  13.0272  13.2599
    13.2599  14.2407

          k =-1.0000 0.5000 0.5000 (   754 PWs)   bands (ev):

    -8.0872  -7.5263   3.0339   4.3379   4.4446   4.4904   5.2063   6.4137
     6.7608   7.8319   7.9305   8.5902   8.9587   9.9832  12.9537  13.4059
    13.7555  14.5488

          k =-0.6250 0.3750 0.3750 (   764 PWs)   bands (ev):

    -7.8316  -7.2828   2.4440   4.1115   4.3619   4.8098   5.7031   5.9259
     6.8568   7.0734   7.5678   8.8564   9.3279   9.8506  13.2195  13.4789
    14.3907  14.7060

          k =-0.6250-0.6250 0.8750 (   757 PWs)   bands (ev):

    -7.9472  -7.6747   3.1960   4.0511   4.3861   4.9678   5.1991   6.0526
     6.7510   7.6108   7.6374   9.0572   9.3143   9.9522  12.9476  13.3668
    14.0021  14.4890

          k =-0.2500-0.7500 0.7500 (   764 PWs)   bands (ev):

    -7.7309  -7.3892   3.0312   3.7669   4.3174   4.5681   5.4820   6.1995
     6.5380   7.3236   7.7323   8.5724   9.2890   9.9469  13.1453  13.3696
    14.4349  14.5763

          k =-0.2500-0.2500-0.2500 (   748 PWs)   bands (ev):

    -8.0758  -8.0282   3.8549   3.9473   3.9473   4.6932   5.5801   5.5801
     7.4735   7.4735   8.2581   9.6816   9.7034   9.7034  13.2302  13.2302
    14.1333  14.1333

     the Fermi energy is    10.1559 ev

!    total energy              =    -175.16678519 Ry
     Harris-Foulkes estimate   =    -175.16675761 Ry
     estimated scf accuracy    <       0.00000072 Ry

     The total energy is the sum of the following terms:

     one-electron contribution =       1.17033991 Ry
     hartree contribution      =      28.27248406 Ry
     xc contribution           =     -67.27363802 Ry
     ewald contribution        =    -137.50929535 Ry
     Hubbard energy            =       0.17199745 Ry
     smearing contrib. (-TS)   =       0.00132676 Ry

     total magnetization       =     0.00 Bohr mag/cell
     absolute magnetization    =     7.48 Bohr mag/cell

     convergence has been achieved in  10 iterations

     Writing output data file feo.save
 
     init_run     :      2.71s CPU      2.81s WALL (       1 calls)
     electrons    :     19.29s CPU     20.93s WALL (       1 calls)

     Called by init_run:
     wfcinit      :      0.41s CPU      0.42s WALL (       1 calls)
     potinit      :      0.42s CPU      0.48s WALL (       1 calls)

     Called by electrons:
     c_bands      :      9.25s CPU      9.84s WALL (      10 calls)
     sum_band     :      4.32s CPU      4.64s WALL (      10 calls)
     v_of_rho     :      3.39s CPU      3.84s WALL (      11 calls)
     newd         :      1.86s CPU      1.95s WALL (      11 calls)
     mix_rho      :      0.29s CPU      0.32s WALL (      10 calls)

     Called by c_bands:
     init_us_2    :      0.12s CPU      0.12s WALL (     154 calls)
     cegterg      :      8.85s CPU      9.43s WALL (      70 calls)

     Called by *egterg:
     h_psi        :      8.34s CPU      8.77s WALL (     256 calls)
     s_psi        :      0.14s CPU      0.16s WALL (     263 calls)
     g_psi        :      0.02s CPU      0.03s WALL (     179 calls)
     cdiaghg      :      0.28s CPU      0.26s WALL (     249 calls)

     Called by h_psi:
     add_vuspsi   :      0.15s CPU      0.17s WALL (     256 calls)

     General routines
     calbec       :      0.35s CPU      0.36s WALL (     659 calls)
     fft          :      1.80s CPU      2.05s WALL (     331 calls)
     ffts         :      0.04s CPU      0.07s WALL (      42 calls)
     fftw         :      7.88s CPU      8.36s WALL (    7770 calls)
     interpolate  :      0.30s CPU      0.47s WALL (      42 calls)
     davcio       :      0.00s CPU      0.09s WALL (     448 calls)
 
     Parallel routines
     fft_scatter  :      0.64s CPU      0.86s WALL (    8143 calls)
     EXX routines
 
     PWSCF        :    22.29s CPU        24.10s WALL

 
   This run was terminated on:  13:39:41  16Jun2012            

=------------------------------------------------------------------------------=
   JOB DONE.
=------------------------------------------------------------------------------=
