
     Program PWSCF v.5.0        starts on 16Jun2012 at 13:39:41 

     This program is part of the open-source Quantum ESPRESSO suite
     for quantum simulation of materials; please cite
         "P. Giannozzi et al., J. Phys.:Condens. Matter 21 395502 (2009);
          URL http://www.quantum-espresso.org", 
     in publications or presentations arising from this work. More details at
     http://www.quantum-espresso.org/quote.php

     Parallel version (MPI), running on     4 processors
     K-points division:     npool     =    4

     Current dimensions of program PWSCF are:
     Max number of different atomic species (ntypx) = 10
     Max number of k-points (npk) =  40000
     Max angular momentum in pseudopotentials (lmaxx) =  3
     Waiting for input...
     Reading input from standard input
               file O.pbe-rrkjus.UPF: wavefunction(s)  2S renormalized
               file Fe.pbe-nd-rrkjus.UPF: wavefunction(s)  4S renormalized
               file Fe.pbe-nd-rrkjus.UPF: wavefunction(s)  4S renormalized

     Atomic positions and unit cell read from directory:
     temp/feo.save/
 

     Subspace diagonalization in iterative solution of the eigenvalue problem:
     a serial algorithm will be used

 
     G-vector sticks info
     --------------------
     sticks:   dense  smooth     PW     G-vecs:    dense   smooth      PW
     Sum        1061     539    179                17255     6111    1219
 


     bravais-lattice index     =            0
     lattice parameter (alat)  =       8.1900  a.u.
     unit-cell volume          =     274.6766 (a.u.)^3
     number of atoms/cell      =            4
     number of atomic types    =            3
     number of electrons       =        28.00
     number of Kohn-Sham states=           24
     kinetic-energy cutoff     =      30.0000  Ry
     charge density cutoff     =     240.0000  Ry
     Exchange-correlation      =  SLA  PW   PBE  PBE ( 1 4 3 4 0)
     EXX-fraction              =        0.00

     celldm(1)=   8.190000  celldm(2)=   0.000000  celldm(3)=   0.000000
     celldm(4)=   0.000000  celldm(5)=   0.000000  celldm(6)=   0.000000

     crystal axes: (cart. coord. in units of alat)
               a(1) = (   0.500000   0.500000   1.000000 )  
               a(2) = (   0.500000   1.000000   0.500000 )  
               a(3) = (   1.000000   0.500000   0.500000 )  

     reciprocal axes: (cart. coord. in units 2 pi/alat)
               b(1) = ( -0.500000 -0.500000  1.500000 )  
               b(2) = ( -0.500000  1.500000 -0.500000 )  
               b(3) = (  1.500000 -0.500000 -0.500000 )  


     PseudoPot. # 1 for O  read from file:
     ../pseudo/O.pbe-rrkjus.UPF
     MD5 check sum: 390ba29e75625707450f3bd3f0eb6be9
     Pseudo is Ultrasoft, Zval =  6.0
     Generated by new atomic code, or converted to UPF format
     Using radial grid of 1269 points,  4 beta functions with: 
                l(1) =   0
                l(2) =   0
                l(3) =   1
                l(4) =   1
     Q(r) pseudized with 0 coefficients 


     PseudoPot. # 2 for Fe read from file:
     ../pseudo/Fe.pbe-nd-rrkjus.UPF
     MD5 check sum: 23c640529ef232ac9996b4ec1b0ce2fd
     Pseudo is Ultrasoft + core correction, Zval =  8.0
     Generated by new atomic code, or converted to UPF format
     Using radial grid of  957 points,  6 beta functions with: 
                l(1) =   0
                l(2) =   0
                l(3) =   1
                l(4) =   1
                l(5) =   2
                l(6) =   2
     Q(r) pseudized with 0 coefficients 


     PseudoPot. # 3 for Fe read from file:
     ../pseudo/Fe.pbe-nd-rrkjus.UPF
     MD5 check sum: 23c640529ef232ac9996b4ec1b0ce2fd
     Pseudo is Ultrasoft + core correction, Zval =  8.0
     Generated by new atomic code, or converted to UPF format
     Using radial grid of  957 points,  6 beta functions with: 
                l(1) =   0
                l(2) =   0
                l(3) =   1
                l(4) =   1
                l(5) =   2
                l(6) =   2
     Q(r) pseudized with 0 coefficients 


     atomic species   valence    mass     pseudopotential
        O              6.00     1.00000     O ( 1.00)
        Fe1            8.00     1.00000     Fe( 1.00)
        Fe2            8.00     1.00000     Fe( 1.00)

     Starting magnetic structure 
     atomic species   magnetization
        O            0.000
        Fe1          0.500
        Fe2         -0.500
 -----
     simplified LDA+U calculation, Hubbard_lmax = 2
     atomic species  L   Hubbard U  Hubbard alpha
        Fe1          2    4.300000    0.000000
        Fe2          2    4.300000    0.000000
 -----

     12 Sym. Ops., with inversion, found



   Cartesian axes

     site n.     atom                  positions (alat units)
         1           O   tau(   1) = (   0.5000000   0.5000000   0.5000000  )
         2           O   tau(   2) = (   1.5000000   1.5000000   1.5000000  )
         3           Fe1 tau(   3) = (   0.0000000   0.0000000   0.0000000  )
         4           Fe2 tau(   4) = (   1.0000000   1.0000000   1.0000000  )

     number of k points=   130  Methfessel-Paxton smearing, width (Ry)=  0.0200

     Number of k-points >= 100: set verbosity='high' to print them.

     Dense  grid:    17255 G-vectors     FFT dimensions: (  50,  50,  50)

     Smooth grid:     6111 G-vectors     FFT dimensions: (  36,  36,  36)

     Largest allocated arrays     est. size (Mb)     dimensions
        Kohn-Sham Wavefunctions         0.29 Mb     (    780,   24)
        Atomic wavefunctions            0.24 Mb     (    780,   20)
        NL pseudopotentials             0.62 Mb     (    780,   52)
        Each V/rho on FFT grid          3.81 Mb     ( 125000,   2)
        Each G-vector array             0.13 Mb     (  17255)
        G-vector shells                 0.00 Mb     (    342)
     Largest temporary arrays     est. size (Mb)     dimensions
        Auxiliary wavefunctions         1.14 Mb     (    780,   96)
        Each subspace H/S matrix        0.14 Mb     (  96,  96)
        Each <psi_i|beta_j> matrix      0.02 Mb     (     52,   24)

     Check: negative/imaginary core charge=   -0.000003    0.000000

     The potential is recalculated from file :
     temp/feo.save/charge-density.dat

     Number of +U iterations with fixed ns =  0
     Starting occupations:
 --- enter write_ns ---
 LDA+U parameters:
U( 2)     =  4.30000000
alpha( 2) =  0.00000000
U( 3)     =  4.30000000
alpha( 3) =  0.00000000
atom    3   Tr[ns(na)] (up, down, total) =   4.98908  1.65755  6.64663
   spin  1
    eigenvalues: 
  0.997  0.997  0.998  0.999  0.999
    eigenvectors:
  0.638  0.357  0.000  0.004  0.001
  0.000  0.003  0.333  0.001  0.663
  0.003  0.001  0.333  0.515  0.148
  0.357  0.638  0.000  0.001  0.004
  0.002  0.001  0.333  0.479  0.184
    occupations:
  0.997  0.000  0.000  0.000  0.000
  0.000  0.999  0.000  0.000  0.000
  0.000  0.000  0.999  0.000  0.000
  0.000  0.000  0.000  0.997  0.000
  0.000  0.000  0.000  0.000  0.999
   spin  2
    eigenvalues: 
  0.091  0.091  0.240  0.240  0.996
    eigenvectors:
  0.002  0.008  0.072  0.918  0.000
  0.178  0.481  0.003  0.003  0.333
  0.660  0.000  0.006  0.000  0.333
  0.008  0.002  0.918  0.072  0.000
  0.152  0.508  0.000  0.006  0.333
    occupations:
  0.238  0.006  0.006  0.000  0.012
  0.006  0.394  0.301  0.011 -0.301
  0.006  0.301  0.394 -0.011 -0.301
  0.000  0.011 -0.011  0.238  0.000
  0.012 -0.301 -0.301  0.000  0.394
atomic mag. moment =     3.331531
atom    4   Tr[ns(na)] (up, down, total) =   1.65752  4.98908  6.64661
   spin  1
    eigenvalues: 
  0.091  0.091  0.240  0.240  0.996
    eigenvectors:
  0.002  0.008  0.183  0.807  0.000
  0.191  0.469  0.002  0.005  0.333
  0.659  0.001  0.007  0.000  0.333
  0.008  0.002  0.807  0.183  0.000
  0.141  0.519  0.001  0.006  0.333
    occupations:
  0.238  0.006  0.006  0.000  0.012
  0.006  0.394  0.301  0.011 -0.301
  0.006  0.301  0.394 -0.011 -0.301
  0.000  0.011 -0.011  0.238  0.000
  0.012 -0.301 -0.301  0.000  0.394
   spin  2
    eigenvalues: 
  0.997  0.997  0.998  0.999  0.999
    eigenvectors:
  0.848  0.147  0.000  0.004  0.001
  0.000  0.003  0.333  0.019  0.644
  0.002  0.001  0.333  0.392  0.272
  0.147  0.848  0.000  0.001  0.004
  0.003  0.000  0.333  0.584  0.079
    occupations:
  0.997  0.000  0.000  0.000  0.000
  0.000  0.999  0.000  0.000  0.000
  0.000  0.000  0.999  0.000  0.000
  0.000  0.000  0.000  0.997  0.000
  0.000  0.000  0.000  0.000  0.999
atomic mag. moment =    -3.331558
N of occupied +U levels =  13.2932414
 --- exit write_ns ---
 Atomic wfc used for LDA+U Projector are NOT orthogonalized
     Starting wfc are   20 randomized atomic wfcs

     total cpu time spent up to now is        2.6 secs

     per-process dynamical memory:    27.0 Mb

     Band Structure Calculation
     Davidson diagonalization with overlap

     ethr =  3.57E-09,  avg # of iterations = 16.1

     total cpu time spent up to now is       31.6 secs

     End of band structure calculation

 ------ SPIN UP ------------


          k = 0.0000 0.0000 0.0000     band energies (ev):

    -8.5602  -7.3750   1.8845   3.8734   3.8734   5.5462   5.5462   7.1887
     8.2562   8.2905   8.2905   8.8402   8.8402  10.0708  12.0293  13.2868
    13.2868  14.3499  14.3499  16.0287  20.5846  24.4721  24.4721  26.8681

          k = 0.1875-0.0625-0.0625     band energies (ev):

    -8.4258  -7.4079   2.2720   3.8197   4.0143   5.3643   5.4167   7.0563
     7.4445   8.0106   8.1657   8.9466   9.1161  10.0139  12.9399  13.2281
    13.3111  14.1577  14.3758  16.9928  20.4429  23.2717  24.8109  25.3326

          k = 0.3750-0.1250-0.1250     band energies (ev):

    -8.1316  -7.4355   3.0300   3.8882   4.3173   4.6009   5.2259   6.5556
     6.8088   7.8199   7.9043   8.9607   9.1699   9.8940  13.1632  13.3663
    13.6739  14.4668  15.2366  18.7195  20.1336  21.3934  23.3664  25.3662

          k = 0.5625-0.1875-0.1875     band energies (ev):

    -7.9484  -7.3104   2.9970   3.8747   4.4002   4.7549   5.4292   5.9213
     6.5281   7.3419   7.9261   8.8176   9.3649   9.7466  13.1791  13.4139
    14.0375  14.5781  16.8007  19.2791  19.9440  20.8655  21.7332  23.4179

          k =-0.7500 0.2500 0.2500     band energies (ev):

    -7.9164  -7.1982   2.7535   3.9420   4.3540   4.6877   5.7037   6.0803
     6.4971   7.0443   7.6023   9.0134   9.4409   9.6307  13.1896  13.4334
    14.2563  14.6257  17.8709  18.2076  20.1738  20.6776  21.9085  22.2689

          k = 0.1250 0.1250-0.1250     band energies (ev):

    -8.4100  -7.4302   2.3347   3.8036   4.0252   5.3506   5.4298   7.0601
     7.4516   7.8840   7.9086   9.1959   9.2346   9.9933  12.9379  13.2987
    13.3109  14.1382  14.3104  16.9788  20.4726  23.3588  24.8449  25.0264

          k = 0.3125 0.0625-0.1875     band energies (ev):

    -8.1765  -7.4790   2.9885   3.7290   4.2547   4.9540   5.1627   6.5949
     6.9433   7.7057   8.0843   8.9164   9.3003   9.9343  13.1164  13.3232
    13.8446  14.2688  14.8027  18.1426  20.3600  22.1193  23.6201  25.1181

          k = 0.5000 0.0000-0.2500     band energies (ev):

    -7.9365  -7.4195   3.2408   3.9934   4.2239   4.5206   5.3189   6.2584
     6.3880   7.7221   8.0786   8.5209   9.1564   9.8967  13.1403  13.3720
    14.0571  14.4881  16.3931  19.3156  20.2839  20.9391  22.5290  23.1498

          k =-0.8125 0.4375 0.1875     band energies (ev):

    -7.8448  -7.2689   3.0038   3.8105   4.1513   4.8480   5.6378   5.9498
     6.3424   7.4725   7.6733   8.8553   9.0951   9.7912  13.1965  13.4182
    14.3370  14.5458  17.8149  18.9052  19.9649  21.1260  21.4519  22.0860

          k =-0.6250 0.3750 0.1250     band energies (ev):

    -7.8105  -7.3028   3.0103   3.8339   4.1903   4.7983   5.6628   5.7659
     6.4346   7.4493   7.6683   8.8920   9.1984   9.7351  13.2254  13.3951
    14.3415  14.5681  17.5327  18.9684  20.3630  20.8316  21.3693  22.3329

          k =-0.4375 0.3125 0.0625     band energies (ev):

    -7.8966  -7.4552   3.3770   3.9069   4.0851   4.6102   5.1821   6.2677
     6.3887   7.7363   7.9707   8.7070   9.3029   9.8259  13.1975  13.3338
    14.1286  14.4833  16.0434  19.7063  20.0178  20.9367  22.2338  23.6055

          k =-0.2500 0.2500 0.0000     band energies (ev):

    -8.1990  -7.4461   2.9067   3.7107   4.2436   4.9522   5.1734   6.6381
     6.9629   7.7237   8.1919   8.7819   9.3873   9.9238  13.1851  13.3192
    13.8638  14.1698  14.6733  18.3268  20.1434  22.0886  23.7222  25.0282

          k = 0.2500 0.2500-0.2500     band energies (ev):

    -8.0271  -7.5491   3.4096   3.5055   4.3637   4.6837   5.2204   6.4668
     6.7922   7.5488   7.6644   9.3871   9.4828   9.8756  13.0507  13.3178
    14.1709  14.4116  14.7577  18.1870  20.4226  21.9713  22.5664  25.5037

          k = 0.4375 0.1875-0.3125     band energies (ev):

    -7.7905  -7.5648   3.2080   3.9386   4.2192   4.8039   5.0730   6.1775
     6.6249   7.4768   7.7718   9.1031   9.2177   9.9115  13.0948  13.3424
    14.3578  14.4323  15.9492  18.5128  20.5538  21.5869  21.7357  24.2576

          k =-0.8750 0.6250 0.1250     band energies (ev):

    -7.6797  -7.4300   3.1659   3.7357   4.3658   4.5346   5.3148   6.0901
     6.5617   7.4477   7.7008   8.8787   8.9858   9.8850  13.1890  13.3716
    14.4430  14.5398  17.4979  19.0847  20.1971  20.8150  21.3356  22.3411

          k =-0.6875 0.5625 0.0625     band energies (ev):

    -7.6140  -7.3882   3.2483   3.6207   4.2741   4.6302   5.1191   5.9710
     6.8707   7.3925   7.5558   8.7313   9.0982   9.7699  13.2869  13.3870
    14.4185  14.6007  18.8655  19.0066  20.0426  20.4369  21.0101  21.4352

          k =-0.5000 0.5000 0.0000     band energies (ev):

    -7.6025  -7.5093   3.4324   3.5599   4.3235   4.6310   5.0924   6.0755
     6.5026   7.6684   7.7279   8.5319   9.2070   9.7832  13.2869  13.3171
    14.3255  14.6687  17.3334  19.5162  20.7091  20.8940  21.5724  21.7672

          k = 0.3750 0.3750-0.3750     band energies (ev):

    -7.6560  -7.5937   2.6542   4.2404   4.4419   4.6282   5.4205   5.9593
     6.8036   7.2859   7.6265   9.1034   9.3481   9.9412  13.1306  13.4329
    14.4962  14.6621  15.7236  17.7824  20.4984  21.0703  22.3104  24.7721

          k =-0.9375 0.8125 0.0625     band energies (ev):

    -7.6392  -7.4587   2.5183   4.1817   4.4483   4.6058   5.5455   5.9029
     6.9258   7.1569   7.6231   8.9079   9.1878   9.9576  13.2247  13.3912
    14.5891  14.6703  16.5307  17.8461  20.4397  20.7361  22.0501  23.5851

          k =-0.7500 0.7500 0.0000     band energies (ev):

    -7.5368  -7.4587   2.9063   3.9154   4.4396   4.5142   5.0495   6.0612
     7.0808   7.1098   7.5450   8.8439   9.1483   9.8376  13.3151  13.3264
    14.5253  14.5964  18.0751  18.6734  20.2328  20.5656  20.6806  22.1738

          k =-0.5000-0.5000 0.5000     band energies (ev):

    -7.6989  -7.3904   2.2000   4.3750   4.4014   4.6797   5.7042   5.9721
     7.0992   7.1150   7.5099   8.8391   9.2223   9.9985  13.2455  13.5183
    14.6759  14.7901  15.8338  17.3109  20.5442  20.6207  22.8424  24.2055

          k = 0.0625 0.0625 0.0625     band energies (ev):

    -8.5220  -7.4381   2.0610   3.8850   3.8850   5.5516   5.5516   6.9344
     8.0791   8.0791   8.2109   9.0567   9.0567  10.0197  12.3246  13.2788
    13.2788  14.3169  14.3169  15.9942  20.6735  24.6316  24.6316  26.2760

          k = 0.2500 0.0000 0.0000     band energies (ev):

    -8.3746  -7.4886   2.5026   3.8538   4.0246   5.3548   5.4053   6.8937
     7.0160   8.2144   8.4330   8.8745   8.9190   9.9960  13.0379  13.3118
    13.3461  14.2699  14.4027  16.8446  20.6646  23.3793  25.0489  25.2230

          k = 0.4375-0.0625-0.0625     band energies (ev):

    -8.1255  -7.4571   3.0052   4.1483   4.3189   4.5554   5.2179   6.4731
     6.8589   7.9546   7.9882   8.5981   8.9816   9.9506  13.0596  13.3952
    13.6612  14.5209  15.7139  18.2429  20.7505  21.3217  23.7616  24.8319

          k =-0.8750 0.3750 0.3750     band energies (ev):

    -7.9788  -7.2811   2.8729   3.8801   4.3929   4.9506   5.4326   6.0332
     6.5218   7.4181   8.0240   8.4470   9.2361   9.8542  13.1321  13.4533
    14.0349  14.6212  17.1266  18.6219  20.0174  21.4631  21.9098  22.9227

          k =-0.6875 0.3125 0.3125     band energies (ev):

    -7.8916  -7.2192   2.6539   3.9875   4.3568   4.7486   5.7041   5.9939
     6.6377   7.0541   7.5942   8.9476   9.4087   9.7109  13.1992  13.4469
    14.2890  14.6489  17.5294  18.0477  20.2750  20.7086  21.9260  22.7066

          k =-0.5000 0.2500 0.2500     band energies (ev):

    -7.8680  -7.3874   2.9707   3.9952   4.4174   4.5696   5.4239   5.8738
     6.6136   7.2777   7.8172   9.1197   9.4471   9.7043  13.1930  13.3905
    14.1553  14.5736  16.3465  18.8267  20.5778  20.7475  21.4648  24.2357

          k =-0.3125 0.1875 0.1875     band energies (ev):

    -8.0962  -7.4682   3.1580   3.6864   4.3354   4.6235   5.2275   6.6563
     6.6936   7.6577   7.7682   9.2944   9.3723   9.8531  13.1331  13.3325
    13.9094  14.4224  14.8593  18.6407  20.0604  21.6384  22.9311  25.3956

          k = 0.1875 0.1875-0.0625     band energies (ev):

    -8.3300  -7.5483   2.6810   3.8002   4.0513   5.3396   5.4378   6.6412
     7.1651   7.6799   8.2384   9.0964   9.4844   9.9383  13.0464  13.2804
    13.6170  14.1518  14.2451  16.7956  20.7810  23.6276  24.5414  25.1157

          k = 0.3750 0.1250-0.1250     band energies (ev):

    -8.1159  -7.5644   3.1638   3.8245   4.2843   4.9485   5.1442   6.5161
     6.7829   7.6127   8.0721   8.9736   9.2292   9.9525  13.0049  13.3310
    13.8607  14.3377  15.2154  17.6845  20.9369  22.2274  23.3608  25.3674

          k =-0.9375 0.5625 0.3125     band energies (ev):

    -7.9468  -7.4149   3.1005   4.0468   4.4001   4.4651   5.4851   6.2039
     6.4977   7.5349   8.0892   8.4385   9.1179   9.9616  13.0563  13.3973
    14.0648  14.5170  16.7677  18.4785  20.5574  21.4388  22.4034  22.9981

          k =-0.7500 0.5000 0.2500     band energies (ev):

    -7.8362  -7.2734   2.8241   3.9057   4.1849   4.8524   5.6566   6.0175
     6.4457   7.4569   7.6489   8.7204   9.1231   9.8765  13.1814  13.4274
    14.3645  14.5928  17.8499  18.1694  20.0609  21.0424  21.7515  22.4086

          k =-0.5625 0.4375 0.1875     band energies (ev):

    -7.7399  -7.3688   2.8367   3.9839   4.2907   4.7043   5.5938   5.7671
     6.5927   7.3876   7.6378   8.9218   9.2465   9.7706  13.2516  13.3717
    14.3896  14.6430  17.0739  18.5860  20.5865  20.7374  21.5472  22.8613

          k =-0.3750 0.3750 0.1250     band energies (ev):

    -7.8371  -7.5143   3.3639   3.8953   4.0778   4.7151   5.0835   6.2179
     6.5053   7.6799   7.7946   8.9537   9.3348   9.8245  13.1727  13.3220
    14.2466  14.4887  15.8488  19.1138  20.3344  21.2708  21.9281  24.0046

          k = 0.3125 0.3125-0.1875     band energies (ev):

    -7.9523  -7.6427   3.3357   3.7431   4.3861   4.8239   5.2093   6.2241
     6.8159   7.5310   7.6237   9.2744   9.4592   9.9195  12.9896  13.3332
    14.1325  14.4382  15.1853  17.6790  20.9812  22.1915  22.4545  25.6381

          k =-1.0000 0.7500 0.2500     band energies (ev):

    -7.8126  -7.5482   3.0656   3.9759   4.3614   4.7712   5.2824   6.1506
     6.6984   7.2593   7.8316   8.8643   9.3059   9.9825  13.0286  13.3677
    14.3230  14.4541  16.3205  17.9792  20.7487  21.5077  22.0229  24.1038

          k =-0.8125 0.6875 0.1875     band energies (ev):

    -7.7128  -7.3953   3.0672   3.7653   4.3367   4.5538   5.4395   6.1548
     6.5588   7.3531   7.7213   8.6735   9.2039   9.9325  13.1557  13.3728
    14.4625  14.5371  17.6677  18.6045  20.0392  20.7355  21.5297  22.4197

          k =-0.6250 0.6250 0.1250     band energies (ev):

    -7.5890  -7.4104   3.0756   3.7656   4.3345   4.5907   5.0941   6.0060
     6.9562   7.2966   7.5453   8.7387   9.1465   9.7997  13.3043  13.3569
    14.4271  14.6418  18.4701  18.8779  20.1115  20.3618  21.1378  21.6593

          k =-0.4375 0.5625 0.0625     band energies (ev):

    -7.6336  -7.4777   3.3126   3.6542   4.3454   4.5851   5.1659   6.0720
     6.5266   7.6049   7.6914   8.6805   9.1154   9.8199  13.2408  13.3501
    14.3582  14.6270  17.3777  19.4229  20.5722  20.7858  21.3959  22.0350

          k =-0.5625-0.5625 0.6875     band energies (ev):

    -7.7741  -7.4766   2.5697   4.1158   4.4342   4.9508   5.4236   6.0209
     6.8169   7.3594   7.5779   8.9126   9.2237  10.0054  13.0964  13.4694
    14.4229  14.7079  16.0380  17.5041  20.5157  21.0730  22.7961  24.5632

          k =-0.3750-0.6250 0.6250     band energies (ev):

    -7.7128  -7.3856   2.5146   4.1327   4.3472   4.7352   5.6144   5.9406
     6.8617   7.2277   7.6273   8.7474   9.2206   9.9821  13.2000  13.4094
    14.5408  14.6728  16.7782  17.7286  20.3567  20.7557  22.1278  23.4052

          k =-0.1875-0.6875 0.5625     band energies (ev):

    -7.5565  -7.4402   2.9515   3.8724   4.4109   4.5341   5.0661   6.0420
     7.0596   7.1535   7.5451   8.8032   9.1555   9.8270  13.3176  13.3298
    14.4761  14.6325  18.1755  18.7369  20.2028  20.4076  20.9303  21.9859

          k = 0.0000-0.7500 0.5000     band energies (ev):

    -7.6232  -7.3801   3.4036   3.4782   4.2542   4.6397   5.1325   5.9532
     6.8426   7.4121   7.5670   8.7564   9.0584   9.7571  13.2792  13.4002
    14.4307  14.5658  19.0324  19.0982  20.0230  20.6167  20.7808  21.2828

          k =-0.4375-0.4375 0.5625     band energies (ev):

    -7.7432  -7.3498   2.2676   4.2873   4.3717   4.7590   5.7039   5.9509
     7.0311   7.1040   7.5326   8.8341   9.2546   9.9601  13.2384  13.5077
    14.5596  14.7658  16.1423  17.4264  20.5109  20.6389  22.6903  24.2261

          k =-0.2500-0.5000 0.5000     band energies (ev):

    -7.6564  -7.4459   2.6396   4.1280   4.4345   4.5813   5.5290   5.8499
     6.7724   7.2730   7.6212   8.9803   9.1834   9.8746  13.2490  13.3730
    14.4832  14.7007  16.6621  18.1592  20.5009  20.7484  21.8679  23.3510

          k =-0.3125-0.3125 0.4375     band energies (ev):

    -7.7508  -7.5008   2.8155   4.2557   4.4118   4.4348   5.4205   5.9042
     6.7215   7.2545   7.7155   9.1944   9.4391   9.8082  13.1692  13.3989
    14.3553  14.6074  15.9036  18.2461  20.4892  21.1446  21.6850  24.9564

          k = 0.1250 0.1250 0.1250     band energies (ev):

    -8.4134  -7.6037   2.5555   3.9111   3.9111   5.5627   5.5627   6.2399
     7.7768   7.7768   8.1988   9.3792   9.3792   9.8866  13.0299  13.2601
    13.2601  14.2411  14.2411  15.8219  21.0004  25.0896  25.0896  25.1020

          k = 0.3125 0.0625 0.0625     band energies (ev):

    -8.2654  -7.6441   2.9548   3.9166   4.0506   5.2799   5.4006   6.3055
     6.9238   7.9706   8.5952   8.8661   9.1156   9.9620  13.0291  13.3031
    13.5966  14.3758  14.6178  16.4809  21.1789  23.6760  24.5147  25.5528

          k =-1.0000 0.5000 0.5000     band energies (ev):

    -8.0813  -7.5201   3.0362   4.3401   4.4468   4.4932   5.2075   6.4157
     6.7645   7.8346   7.9357   8.5942   8.9622   9.9851  12.9540  13.4060
    13.7555  14.5494  16.2144  17.5022  21.3309  21.7558  23.8093  23.9182

          k =-0.8125 0.4375 0.4375     band energies (ev):

    -7.9556  -7.3023   2.7085   3.9326   4.3996   5.1057   5.4327   6.1019
     6.6260   7.4600   7.8659   8.4121   9.1376   9.9499  13.0895  13.4826
    14.1200  14.6783  17.2887  17.6369  20.2775  21.5910  22.3680  23.0541

          k =-0.6250 0.3750 0.3750     band energies (ev):

    -7.8255  -7.2765   2.4458   4.1142   4.3640   4.8132   5.7041   5.9284
     6.8605   7.0785   7.5696   8.8588   9.3318   9.8524  13.2197  13.4788
    14.3912  14.7064  16.8152  17.7203  20.4153  20.6848  22.2943  23.4812

          k = 0.2500 0.2500 0.0000     band energies (ev):

    -8.1992  -7.7246   3.2197   3.8109   4.0781   5.3246   5.4350   5.9463
     7.0725   7.5566   8.4896   8.9682   9.6054   9.8909  13.0738  13.2692
    13.8926  14.2173  14.4634  16.4073  21.4172  23.7428  24.2267  25.5566

          k =-1.0625 0.6875 0.4375     band energies (ev):

    -8.0375  -7.6669   3.2784   4.0417   4.3299   4.8915   5.1698   6.3699
     6.5572   7.5447   8.1950   8.7602   9.3443   9.9606  12.9436  13.3355
    13.9011  14.3340  15.7907  17.0865  21.7671  22.4370  23.0510  24.5364

          k =-0.8750 0.6250 0.3750     band energies (ev):

    -7.9250  -7.4404   3.0109   4.0504   4.4253   4.5706   5.6150   6.1638
     6.6221   7.2420   8.0950   8.3930   9.2296   9.9976  13.0029  13.4022
    14.1276  14.5374  17.1075  17.6686  20.7153  21.8502  22.3019  22.9525

          k =-0.6875 0.5625 0.3125     band energies (ev):

    -7.7881  -7.3151   2.6292   4.0239   4.2615   4.8152   5.6637   5.9824
     6.6676   7.3698   7.6316   8.6598   9.1911   9.9487  13.1842  13.4230
    14.4327  14.6581  17.3538  17.7843  20.2296  20.8496  22.0552  22.9272

          k =-0.6250-0.6250 0.8750     band energies (ev):

    -7.9412  -7.6686   3.1981   4.0539   4.3882   4.9701   5.2003   6.0558
     6.7537   7.6156   7.6398   9.0613   9.3185   9.9543  12.9476  13.3669
    14.0023  14.4896  15.8720  17.1909  21.5072  22.2383  22.8544  24.3209

          k =-0.4375-0.6875 0.8125     band energies (ev):

    -7.8746  -7.4904   2.9957   4.0173   4.4185   4.6825   5.5479   6.1425
     6.7021   7.1291   7.9569   8.5809   9.3219  10.0054  12.9971  13.3894
    14.2180  14.5176  16.8711  17.5556  20.8152  21.5727  22.3893  23.3825

          k =-0.2500-0.7500 0.7500     band energies (ev):

    -7.7247  -7.3829   3.0331   3.7692   4.3200   4.5707   5.4843   6.2029
     6.5408   7.3278   7.7343   8.5746   9.2930   9.9488  13.1455  13.3696
    14.4352  14.5764  17.7952  18.3404  20.0033  20.6855  21.6939  22.3470

          k =-0.5000-0.5000 0.7500     band energies (ev):

    -7.8837  -7.3705   2.5918   4.0119   4.4169   5.1266   5.4291   6.0867
     6.7505   7.4344   7.6368   8.6521   9.1340  10.0038  13.0782  13.4884
    14.2599  14.7144  16.7250  17.3827  20.4478  21.2471  23.0187  23.5480

          k = 0.1875 0.1875 0.1875     band energies (ev):

    -8.2501  -7.8208   3.2722   3.9378   3.9378   5.3475   5.5749   5.5749
     7.5580   7.5580   8.2364   9.6201   9.6201   9.7444  13.2397  13.2397
    13.8710  14.1655  14.1655  15.4104  21.6533  23.8231  25.7857  25.7857

          k =-1.1250 0.6250 0.6250     band energies (ev):

    -8.1151  -7.8299   3.4253   4.0462   4.0778   5.0629   5.4067   5.7956
     6.9137   7.7211   8.5894   8.9218   9.3838   9.9272  13.0303  13.2886
    13.7468  14.3094  15.2013  15.8986  21.9791  23.4578  24.1456  25.8434

          k =-0.9375 0.5625 0.5625     band energies (ev):

    -8.0094  -7.6030   3.0996   4.2877   4.3686   4.8364   5.1998   6.2102
     6.6904   7.6944   7.7770   8.8131   9.1199   9.9827  12.9239  13.3958
    13.8737  14.5363  16.6209  16.7611  21.4958  22.8472  23.0258  23.4090

          k =-0.6875-0.6875 1.0625     band energies (ev):

    -8.0432  -7.9076   3.5903   3.9791   4.0895   5.0833   5.4214   5.6121
     6.9764   7.5709   8.5841   8.9272   9.5654   9.8928  13.0552  13.2740
    13.8473  14.2437  15.1732  15.8476  22.3516  22.9305  24.6393  25.1464

          k =-0.5000-0.7500 1.0000     band energies (ev):

    -7.9919  -7.7222   3.3060   4.1700   4.3821   4.8266   5.2110   6.2057
     6.5176   7.5260   8.2870   8.6316   9.3952   9.9593  12.9298  13.3366
    13.9227  14.3221  16.3711  16.4975  22.4277  22.5348  23.0872  23.5047

          k =-0.2500-0.2500-0.2500     band energies (ev):

    -8.0700  -8.0224   3.8577   3.9492   3.9492   4.6965   5.5809   5.5809
     7.4784   7.4784   8.2604   9.6830   9.7085   9.7085  13.2303  13.2303
    14.1336  14.1336  14.5246  14.9104  22.5890  22.6682  26.4388  26.4388

 ------ SPIN DOWN ----------


          k = 0.0000 0.0000 0.0000     band energies (ev):

    -8.5603  -7.3750   1.8844   3.8728   3.8728   5.5456   5.5456   7.1884
     8.2562   8.2905   8.2905   8.8402   8.8402  10.0710  12.0292  13.2874
    13.2874  14.3504  14.3504  16.0286  20.5846  24.4721  24.4721  26.8681

          k = 0.1875-0.0625-0.0625     band energies (ev):

    -8.4258  -7.4079   2.2718   3.8192   4.0137   5.3637   5.4161   7.0561
     7.4445   8.0105   8.1657   8.9465   9.1159  10.0142  12.9399  13.2287
    13.3117  14.1583  14.3764  16.9928  20.4429  23.2716  24.8108  25.3325

          k = 0.3750-0.1250-0.1250     band energies (ev):

    -8.1316  -7.4355   3.0298   3.8878   4.3168   4.6005   5.2253   6.5554
     6.8087   7.8199   7.9040   8.9604   9.1697   9.8943  13.1638  13.3669
    13.6743  14.4674  15.2367  18.7195  20.1337  21.3933  23.3665  25.3660

          k = 0.5625-0.1875-0.1875     band energies (ev):

    -7.9484  -7.3104   2.9966   3.8745   4.3997   4.7548   5.4286   5.9213
     6.5277   7.3418   7.9256   8.8173   9.3647   9.7470  13.1797  13.4145
    14.0381  14.5787  16.8007  19.2790  19.9440  20.8654  21.7334  23.4179

          k =-0.7500 0.2500 0.2500     band energies (ev):

    -7.9164  -7.1982   2.7530   3.9417   4.3536   4.6877   5.7029   6.0804
     6.4966   7.0443   7.6017   9.0131   9.4407   9.6312  13.1903  13.4341
    14.2568  14.6263  17.8708  18.2075  20.1738  20.6777  21.9085  22.2690

          k = 0.1250 0.1250-0.1250     band energies (ev):

    -8.4100  -7.4302   2.3345   3.8030   4.0246   5.3501   5.4292   7.0599
     7.4516   7.8839   7.9086   9.1957   9.2345   9.9936  12.9380  13.2993
    13.3114  14.1387  14.3110  16.9788  20.4727  23.3587  24.8448  25.0264

          k = 0.3125 0.0625-0.1875     band energies (ev):

    -8.1766  -7.4790   2.9883   3.7285   4.2542   4.9535   5.1622   6.5947
     6.9433   7.7054   8.0842   8.9163   9.3001   9.9346  13.1170  13.3239
    13.8449  14.2693  14.8029  18.1426  20.3600  22.1192  23.6201  25.1181

          k = 0.5000 0.0000-0.2500     band energies (ev):

    -7.9365  -7.4195   3.2403   3.9931   4.2236   4.5202   5.3184   6.2582
     6.3878   7.7218   8.0784   8.5207   9.1562   9.8971  13.1410  13.3727
    14.0576  14.4886  16.3932  19.3156  20.2839  20.9390  22.5290  23.1499

          k =-0.8125 0.4375 0.1875     band energies (ev):

    -7.8448  -7.2689   3.0034   3.8102   4.1510   4.8476   5.6375   5.9496
     6.3421   7.4723   7.6728   8.8550   9.0950   9.7916  13.1971  13.4189
    14.3375  14.5464  17.8148  18.9051  19.9649  21.1260  21.4517  22.0862

          k =-0.6250 0.3750 0.1250     band energies (ev):

    -7.8105  -7.3029   3.0099   3.8336   4.1901   4.7979   5.6625   5.7658
     6.4343   7.4490   7.6678   8.8917   9.1982   9.7356  13.2260  13.3958
    14.3421  14.5686  17.5327  18.9683  20.3630  20.8316  21.3694  22.3329

          k =-0.4375 0.3125 0.0625     band energies (ev):

    -7.8966  -7.4552   3.3765   3.9066   4.0848   4.6098   5.1817   6.2677
     6.3884   7.7361   7.9704   8.7068   9.3027   9.8263  13.1981  13.3345
    14.1291  14.4839  16.0435  19.7063  20.0177  20.9366  22.2339  23.6055

          k =-0.2500 0.2500 0.0000     band energies (ev):

    -8.1990  -7.4461   2.9065   3.7101   4.2431   4.9517   5.1729   6.6379
     6.9629   7.7234   8.1918   8.7817   9.3870   9.9241  13.1857  13.3199
    13.8640  14.1704  14.6736  18.3268  20.1434  22.0886  23.7221  25.0282

          k = 0.2500 0.2500-0.2500     band energies (ev):

    -8.0271  -7.5491   3.4094   3.5051   4.3632   4.6834   5.2197   6.4667
     6.7921   7.5487   7.6640   9.3869   9.4826   9.8759  13.0513  13.3184
    14.1715  14.4122  14.7577  18.1871  20.4225  21.9712  22.5665  25.5033

          k = 0.4375 0.1875-0.3125     band energies (ev):

    -7.7905  -7.5649   3.2075   3.9384   4.2188   4.8035   5.0726   6.1773
     6.6248   7.4766   7.7715   9.1029   9.2175   9.9118  13.0954  13.3431
    14.3584  14.4329  15.9492  18.5128  20.5536  21.5869  21.7358  24.2575

          k =-0.8750 0.6250 0.1250     band energies (ev):

    -7.6797  -7.4301   3.1655   3.7353   4.3655   4.5342   5.3146   6.0900
     6.5614   7.4475   7.7003   8.8786   8.9855   9.8853  13.1896  13.3722
    14.4436  14.5404  17.4978  19.0848  20.1970  20.8148  21.3357  22.3413

          k =-0.6875 0.5625 0.0625     band energies (ev):

    -7.6141  -7.3882   3.2479   3.6203   4.2739   4.6297   5.1189   5.9710
     6.8704   7.3922   7.5552   8.7310   9.0980   9.7704  13.2875  13.3876
    14.4190  14.6012  18.8654  19.0064  20.0425  20.4370  21.0101  21.4354

          k =-0.5000 0.5000 0.0000     band energies (ev):

    -7.6026  -7.5093   3.4321   3.5594   4.3232   4.6306   5.0922   6.0756
     6.5022   7.6678   7.7277   8.5316   9.2068   9.7837  13.2875  13.3178
    14.3261  14.6692  17.3334  19.5161  20.7088  20.8940  21.5726  21.7674

          k = 0.3750 0.3750-0.3750     band energies (ev):

    -7.6561  -7.5937   2.6539   4.2402   4.4414   4.6280   5.4198   5.9592
     6.8034   7.2858   7.6259   9.1034   9.3480   9.9414  13.1312  13.4336
    14.4968  14.6627  15.7235  17.7824  20.4982  21.0705  22.3104  24.7718

          k =-0.9375 0.8125 0.0625     band energies (ev):

    -7.6393  -7.4587   2.5179   4.1814   4.4480   4.6055   5.5452   5.9024
     6.9257   7.1567   7.6226   8.9079   9.1876   9.9579  13.2253  13.3919
    14.5897  14.6709  16.5307  17.8460  20.4396  20.7362  22.0500  23.5852

          k =-0.7500 0.7500 0.0000     band energies (ev):

    -7.5368  -7.4587   2.9059   3.9150   4.4393   4.5138   5.0493   6.0611
     7.0805   7.1096   7.5444   8.8437   9.1481   9.8380  13.3157  13.3270
    14.5259  14.5970  18.0751  18.6732  20.2330  20.5654  20.6807  22.1739

          k =-0.5000-0.5000 0.5000     band energies (ev):

    -7.6990  -7.3904   2.1997   4.3746   4.4011   4.6796   5.7035   5.9717
     7.0992   7.1150   7.5093   8.8391   9.2222   9.9987  13.2461  13.5190
    14.6764  14.7907  15.8338  17.3108  20.5443  20.6207  22.8424  24.2054

          k = 0.0625 0.0625 0.0625     band energies (ev):

    -8.5221  -7.4381   2.0608   3.8844   3.8844   5.5509   5.5509   6.9341
     8.0791   8.0791   8.2108   9.0566   9.0566  10.0199  12.3246  13.2794
    13.2794  14.3175  14.3175  15.9942  20.6735  24.6315  24.6315  26.2760

          k = 0.2500 0.0000 0.0000     band energies (ev):

    -8.3746  -7.4887   2.5024   3.8533   4.0240   5.3542   5.4047   6.8935
     7.0160   8.2143   8.4329   8.8744   8.9188   9.9963  13.0382  13.3124
    13.3465  14.2703  14.4033  16.8446  20.6646  23.3793  25.0488  25.2230

          k = 0.4375-0.0625-0.0625     band energies (ev):

    -8.1255  -7.4571   3.0049   4.1479   4.3184   4.5551   5.2172   6.4729
     6.8588   7.9545   7.9879   8.5979   8.9815   9.9509  13.0602  13.3958
    13.6616  14.5214  15.7140  18.2429  20.7505  21.3216  23.7616  24.8319

          k =-0.8750 0.3750 0.3750     band energies (ev):

    -7.9788  -7.2812   2.8725   3.8799   4.3924   4.9505   5.4319   6.0331
     6.5214   7.4180   8.0236   8.4468   9.2359   9.8546  13.1328  13.4539
    14.0354  14.6218  17.1266  18.6218  20.0173  21.4631  21.9099  22.9227

          k =-0.6875 0.3125 0.3125     band energies (ev):

    -7.8917  -7.2193   2.6534   3.9872   4.3564   4.7486   5.7034   5.9939
     6.6374   7.0542   7.5936   8.9473   9.4085   9.7112  13.1998  13.4476
    14.2896  14.6495  17.5293  18.0476  20.2750  20.7087  21.9260  22.7067

          k =-0.5000 0.2500 0.2500     band energies (ev):

    -7.8680  -7.3874   2.9702   3.9950   4.4170   4.5695   5.4232   5.8738
     6.6132   7.2777   7.8167   9.1194   9.4469   9.7048  13.1936  13.3912
    14.1559  14.5742  16.3465  18.8266  20.5776  20.7475  21.4650  24.2357

          k =-0.3125 0.1875 0.1875     band energies (ev):

    -8.0962  -7.4683   3.1578   3.6860   4.3349   4.6232   5.2269   6.6560
     6.6936   7.6577   7.7679   9.2941   9.3721   9.8535  13.1337  13.3331
    13.9098  14.4230  14.8594  18.6407  20.0604  21.6383  22.9312  25.3954

          k = 0.1875 0.1875-0.0625     band energies (ev):

    -8.3300  -7.5484   2.6809   3.7997   4.0507   5.3390   5.4371   6.6412
     7.1650   7.6799   8.2382   9.0962   9.4842   9.9386  13.0468  13.2810
    13.6172  14.1524  14.2456  16.7956  20.7811  23.6275  24.5415  25.1156

          k = 0.3750 0.1250-0.1250     band energies (ev):

    -8.1159  -7.5645   3.1636   3.8241   4.2838   4.9480   5.1437   6.5159
     6.7828   7.6125   8.0720   8.9734   9.2290   9.9528  13.0054  13.3316
    13.8611  14.3383  15.2156  17.6845  20.9369  22.2273  23.3608  25.3673

          k =-0.9375 0.5625 0.3125     band energies (ev):

    -7.9468  -7.4149   3.1001   4.0465   4.3998   4.4647   5.4847   6.2036
     6.4976   7.5347   8.0889   8.4383   9.1177   9.9619  13.0569  13.3980
    14.0653  14.5176  16.7678  18.4785  20.5572  21.4387  22.4035  22.9982

          k =-0.7500 0.5000 0.2500     band energies (ev):

    -7.8362  -7.2735   2.8236   3.9054   4.1845   4.8520   5.6564   6.0171
     6.4455   7.4566   7.6484   8.7203   9.1229   9.8768  13.1820  13.4281
    14.3650  14.5933  17.8498  18.1694  20.0609  21.0425  21.7513  22.4088

          k =-0.5625 0.4375 0.1875     band energies (ev):

    -7.7399  -7.3688   2.8363   3.9835   4.2904   4.7039   5.5935   5.7669
     6.5925   7.3874   7.6372   8.9216   9.2463   9.7710  13.2522  13.3724
    14.3902  14.6436  17.0738  18.5859  20.5864  20.7375  21.5472  22.8613

          k =-0.3750 0.3750 0.1250     band energies (ev):

    -7.8371  -7.5144   3.3634   3.8951   4.0775   4.7147   5.0830   6.2178
     6.5051   7.6797   7.7942   8.9535   9.3346   9.8249  13.1733  13.3227
    14.2471  14.4892  15.8489  19.1138  20.3343  21.2707  21.9282  24.0045

          k = 0.3125 0.3125-0.1875     band energies (ev):

    -7.9523  -7.6428   3.3352   3.7429   4.3856   4.8235   5.2087   6.2240
     6.8157   7.5310   7.6233   9.2742   9.4591   9.9198  12.9902  13.3338
    14.1330  14.4388  15.1853  17.6790  20.9811  22.1915  22.4546  25.6377

          k =-1.0000 0.7500 0.2500     band energies (ev):

    -7.8126  -7.5483   3.0651   3.9756   4.3609   4.7708   5.2820   6.1503
     6.6983   7.2591   7.8313   8.8641   9.3057   9.9828  13.0292  13.3684
    14.3235  14.4547  16.3205  17.9793  20.7484  21.5078  22.0229  24.1038

          k =-0.8125 0.6875 0.1875     band energies (ev):

    -7.7128  -7.3954   3.0668   3.7650   4.3364   4.5534   5.4392   6.1546
     6.5584   7.3530   7.7208   8.6733   9.2036   9.9328  13.1563  13.3735
    14.4631  14.5377  17.6676  18.6046  20.0390  20.7356  21.5296  22.4199

          k =-0.6250 0.6250 0.1250     band energies (ev):

    -7.5891  -7.4104   3.0752   3.7652   4.3342   4.5903   5.0939   6.0060
     6.9559   7.2963   7.5447   8.7385   9.1463   9.8001  13.3049  13.3576
    14.4277  14.6424  18.4700  18.8778  20.1115  20.3619  21.1378  21.6596

          k =-0.4375 0.5625 0.0625     band energies (ev):

    -7.6336  -7.4777   3.3122   3.6538   4.3450   4.5848   5.1657   6.0720
     6.5262   7.6047   7.6909   8.6802   9.1153   9.8203  13.2415  13.3507
    14.3588  14.6276  17.3777  19.4229  20.5721  20.7855  21.3961  22.0352

          k =-0.5625-0.5625 0.6875     band energies (ev):

    -7.7741  -7.4766   2.5693   4.1156   4.4338   4.9506   5.4230   6.0206
     6.8168   7.3593   7.5774   8.9125   9.2236  10.0057  13.0970  13.4701
    14.4234  14.7084  16.0380  17.5041  20.5155  21.0732  22.7961  24.5632

          k =-0.3750-0.6250 0.6250     band energies (ev):

    -7.7128  -7.3856   2.5143   4.1324   4.3469   4.7348   5.6141   5.9401
     6.8615   7.2276   7.6268   8.7473   9.2204   9.9823  13.2006  13.4101
    14.5414  14.6734  16.7782  17.7286  20.3567  20.7558  22.1276  23.4053

          k =-0.1875-0.6875 0.5625     band energies (ev):

    -7.5565  -7.4402   2.9511   3.8720   4.4105   4.5338   5.0659   6.0418
     7.0594   7.1532   7.5444   8.8030   9.1553   9.8274  13.3182  13.3305
    14.4767  14.6331  18.1754  18.7367  20.2029  20.4075  20.9303  21.9861

          k = 0.0000-0.7500 0.5000     band energies (ev):

    -7.6232  -7.3801   3.4033   3.4778   4.2539   4.6392   5.1324   5.9532
     6.8423   7.4117   7.5664   8.7561   9.0581   9.7577  13.2799  13.4009
    14.4313  14.5664  19.0323  19.0980  20.0228  20.6169  20.7808  21.2830

          k =-0.4375-0.4375 0.5625     band energies (ev):

    -7.7432  -7.3498   2.2672   4.2870   4.3712   4.7590   5.7031   5.9506
     7.0310   7.1040   7.5320   8.8341   9.2544   9.9603  13.2390  13.5084
    14.5602  14.7664  16.1423  17.4263  20.5110  20.6389  22.6904  24.2261

          k =-0.2500-0.5000 0.5000     band energies (ev):

    -7.6565  -7.4459   2.6392   4.1276   4.4342   4.5810   5.5287   5.8496
     6.7723   7.2729   7.6206   8.9802   9.1832   9.8749  13.2496  13.3736
    14.4838  14.7012  16.6621  18.1591  20.5008  20.7485  21.8678  23.3510

          k =-0.3125-0.3125 0.4375     band energies (ev):

    -7.7509  -7.5008   2.8151   4.2554   4.4117   4.4343   5.4198   5.9041
     6.7213   7.2545   7.7149   9.1943   9.4389   9.8085  13.1698  13.3996
    14.3558  14.6080  15.9036  18.2460  20.4891  21.1447  21.6850  24.9561

          k = 0.1250 0.1250 0.1250     band energies (ev):

    -8.4134  -7.6037   2.5553   3.9106   3.9106   5.5620   5.5620   6.2398
     7.7769   7.7769   8.1986   9.3791   9.3791   9.8869  13.0299  13.2607
    13.2607  14.2417  14.2417  15.8219  21.0004  25.0895  25.0895  25.1020

          k = 0.3125 0.0625 0.0625     band energies (ev):

    -8.2654  -7.6441   2.9547   3.9161   4.0500   5.2794   5.4000   6.3054
     6.9238   7.9706   8.5950   8.8659   9.1155   9.9623  13.0295  13.3038
    13.5970  14.3764  14.6181  16.4809  21.1789  23.6759  24.5147  25.5527

          k =-1.0000 0.5000 0.5000     band energies (ev):

    -8.0813  -7.5202   3.0359   4.3396   4.4465   4.4929   5.2069   6.4154
     6.7645   7.8343   7.9356   8.5939   8.9621   9.9854  12.9545  13.4067
    13.7560  14.5500  16.2145  17.5022  21.3309  21.7558  23.8093  23.9183

          k =-0.8125 0.4375 0.4375     band energies (ev):

    -7.9556  -7.3023   2.7081   3.9324   4.3991   5.1056   5.4320   6.1017
     6.6257   7.4599   7.8657   8.4119   9.1375   9.9501  13.0901  13.4833
    14.1205  14.6789  17.2886  17.6369  20.2774  21.5911  22.3680  23.0541

          k =-0.6250 0.3750 0.3750     band energies (ev):

    -7.8255  -7.2765   2.4454   4.1140   4.3636   4.8131   5.7033   5.9282
     6.8604   7.0785   7.5690   8.8587   9.3316   9.8526  13.2203  13.4795
    14.3918  14.7070  16.8152  17.7202  20.4154  20.6849  22.2943  23.4812

          k = 0.2500 0.2500 0.0000     band energies (ev):

    -8.1992  -7.7246   3.2195   3.8103   4.0775   5.3240   5.4343   5.9463
     7.0724   7.5566   8.4894   8.9680   9.6052   9.8912  13.0744  13.2698
    13.8929  14.2179  14.4636  16.4074  21.4172  23.7427  24.2268  25.5565

          k =-1.0625 0.6875 0.4375     band energies (ev):

    -8.0375  -7.6669   3.2781   4.0413   4.3294   4.8911   5.1693   6.3699
     6.5569   7.5445   8.1948   8.7600   9.3441   9.9609  12.9441  13.3361
    13.9016  14.3345  15.7908  17.0865  21.7671  22.4368  23.0510  24.5364

          k =-0.8750 0.6250 0.3750     band energies (ev):

    -7.9250  -7.4404   3.0105   4.0501   4.4249   4.5702   5.6146   6.1634
     6.6220   7.2419   8.0947   8.3929   9.2294   9.9979  13.0035  13.4029
    14.1282  14.5380  17.1074  17.6687  20.7151  21.8502  22.3019  22.9526

          k =-0.6875 0.5625 0.3125     band energies (ev):

    -7.7882  -7.3151   2.6289   4.0237   4.2611   4.8148   5.6634   5.9820
     6.6674   7.3697   7.6311   8.6597   9.1909   9.9490  13.1848  13.4237
    14.4332  14.6587  17.3537  17.7843  20.2296  20.8497  22.0550  22.9274

          k =-0.6250-0.6250 0.8750     band energies (ev):

    -7.9412  -7.6687   3.1977   4.0537   4.3876   4.9696   5.1997   6.0558
     6.7536   7.6155   7.6395   9.0610   9.3183   9.9546  12.9482  13.3676
    14.0029  14.4901  15.8720  17.1910  21.5070  22.2385  22.8544  24.3209

          k =-0.4375-0.6875 0.8125     band energies (ev):

    -7.8746  -7.4904   2.9953   4.0170   4.4180   4.6821   5.5475   6.1422
     6.7021   7.1289   7.9566   8.5807   9.3217  10.0057  12.9977  13.3901
    14.2185  14.5182  16.8710  17.5557  20.8150  21.5729  22.3892  23.3826

          k =-0.2500-0.7500 0.7500     band energies (ev):

    -7.7247  -7.3829   3.0327   3.7689   4.3197   4.5703   5.4841   6.2027
     6.5404   7.3277   7.7339   8.5744   9.2927   9.9491  13.1461  13.3703
    14.4358  14.5771  17.7950  18.3406  20.0030  20.6856  21.6937  22.3473

          k =-0.5000-0.5000 0.7500     band energies (ev):

    -7.8837  -7.3705   2.5914   4.0117   4.4165   5.1264   5.4284   6.0864
     6.7503   7.4343   7.6365   8.6520   9.1339  10.0040  13.0788  13.4891
    14.2604  14.7149  16.7250  17.3828  20.4476  21.2473  23.0187  23.5480

          k = 0.1875 0.1875 0.1875     band energies (ev):

    -8.2501  -7.8208   3.2720   3.9372   3.9372   5.3475   5.5743   5.5743
     7.5581   7.5581   8.2360   9.6199   9.6199   9.7447  13.2404  13.2404
    13.8709  14.1661  14.1661  15.4104  21.6533  23.8231  25.7856  25.7856

          k =-1.1250 0.6250 0.6250     band energies (ev):

    -8.1151  -7.8299   3.4249   4.0458   4.0773   5.0626   5.4061   5.7954
     6.9136   7.7212   8.5892   8.9216   9.3836   9.9275  13.0308  13.2893
    13.7473  14.3100  15.2014  15.8986  21.9791  23.4578  24.1455  25.8434

          k =-0.9375 0.5625 0.5625     band energies (ev):

    -8.0094  -7.6031   3.0991   4.2874   4.3681   4.8361   5.1992   6.2101
     6.6902   7.6941   7.7770   8.8129   9.1198   9.9831  12.9245  13.3964
    13.8742  14.5369  16.6208  16.7613  21.4957  22.8472  23.0259  23.4090

          k =-0.6875-0.6875 1.0625     band energies (ev):

    -8.0432  -7.9076   3.5899   3.9788   4.0889   5.0830   5.4208   5.6119
     6.9762   7.5710   8.5838   8.9270   9.5652   9.8931  13.0558  13.2746
    13.8478  14.2443  15.1733  15.8477  22.3516  22.9305  24.6390  25.1466

          k =-0.5000-0.7500 1.0000     band energies (ev):

    -7.9919  -7.7222   3.3056   4.1696   4.3817   4.8262   5.2105   6.2057
     6.5173   7.5259   8.2868   8.6313   9.3950   9.9597  12.9303  13.3372
    13.9232  14.3227  16.3710  16.4977  22.4276  22.5347  23.0872  23.5049

          k =-0.2500-0.2500-0.2500     band energies (ev):

    -8.0701  -8.0223   3.8573   3.9486   3.9486   4.6966   5.5803   5.5803
     7.4785   7.4785   8.2601   9.6833   9.7083   9.7083  13.2310  13.2310
    14.1342  14.1342  14.5244  14.9106  22.5891  22.6682  26.4385  26.4385

     the Fermi energy is    12.8261 ev

     Writing output data file feo.save
 
     init_run     :      2.32s CPU      2.41s WALL (       1 calls)
     electrons    :     27.80s CPU     28.99s WALL (       1 calls)

     Called by init_run:
     wfcinit      :      0.09s CPU      0.10s WALL (       1 calls)
     potinit      :      0.36s CPU      0.42s WALL (       1 calls)

     Called by electrons:
     c_bands      :     27.80s CPU     28.99s WALL (       1 calls)
     v_of_rho     :      0.30s CPU      0.35s WALL (       1 calls)
     newd         :      0.18s CPU      0.19s WALL (       1 calls)

     Called by c_bands:
     init_us_2    :      0.05s CPU      0.05s WALL (      66 calls)
     cegterg      :     24.89s CPU     25.95s WALL (      35 calls)

     Called by *egterg:
     h_psi        :     22.03s CPU     23.03s WALL (     589 calls)
     s_psi        :      0.42s CPU      0.42s WALL (     622 calls)
     g_psi        :      0.11s CPU      0.11s WALL (     521 calls)
     cdiaghg      :      2.16s CPU      2.10s WALL (     554 calls)

     Called by h_psi:
     add_vuspsi   :      0.38s CPU      0.42s WALL (     589 calls)

     General routines
     calbec       :      0.65s CPU      0.65s WALL (    1211 calls)
     fft          :      0.12s CPU      0.14s WALL (      23 calls)
     ffts         :      0.00s CPU      0.00s WALL (       2 calls)
     fftw         :     17.41s CPU     18.45s WALL (   17036 calls)
     interpolate  :      0.02s CPU      0.02s WALL (       2 calls)
     davcio       :      0.00s CPU      0.02s WALL (     132 calls)
 
     Parallel routines
     fft_scatter  :      0.91s CPU      1.29s WALL (   17061 calls)
     EXX routines
 
     PWSCF        :    30.57s CPU        31.96s WALL

 
   This run was terminated on:  13:40:13  16Jun2012            

=------------------------------------------------------------------------------=
   JOB DONE.
=------------------------------------------------------------------------------=
