
     Program PWSCF v.5.0.2 (svn rev. 10600) starts on  6Jul2014 at 11:22:14 

     This program is part of the open-source Quantum ESPRESSO suite
     for quantum simulation of materials; please cite
         "P. Giannozzi et al., J. Phys.:Condens. Matter 21 395502 (2009);
          URL http://www.quantum-espresso.org", 
     in publications or presentations arising from this work. More details at
     http://www.quantum-espresso.org/quote

     Parallel version (MPI), running on     8 processors
     K-points division:     npool     =       2
     R & G space division:  proc/nbgrp/npool/nimage =       4
     Reading input from gar-w_03-1H-pw.in

     Current dimensions of program PWSCF are:
     Max number of different atomic species (ntypx) = 10
     Max number of k-points (npk) =  40000
     Max angular momentum in pseudopotentials (lmaxx) =  3
     Message from routine iosys:
     pot_extrapolation='second_order' not available, using 'atomic'
     Message from routine iosys:
     wfc_extrapolation='second_order' not available, using 'atomic'
               file H.pbe-vbc.UPF: wavefunction(s)  0S renormalized

     Subspace diagonalization in iterative solution of the eigenvalue problem:
     a serial algorithm will be used


     Parallelization info
     --------------------
     sticks:   dense  smooth     PW     G-vecs:    dense   smooth      PW
     Min         510     510    145                19326    19326    2918
     Max         511     511    146                19327    19327    2919
     Sum        2043    2043    581                77307    77307   11675



     bravais-lattice index     =            8
     lattice parameter (alat)  =       8.0518  a.u.
     unit-cell volume          =    2760.3463 (a.u.)^3
     number of atoms/cell      =           14
     number of atomic types    =            2
     number of electrons       =        44.00
     number of Kohn-Sham states=           22
     kinetic-energy cutoff     =      35.0000  Ry
     charge density cutoff     =     140.0000  Ry
     convergence threshold     =      1.0E-09
     mixing beta               =       0.5000
     number of iterations used =            8  plain     mixing
     Exchange-correlation      = SLA  PW   PBE  PBE ( 1  4  3  4 0)
     nstep                     =           50


     celldm(1)=   8.051830  celldm(2)=   2.816343  celldm(3)=   1.877562
     celldm(4)=   0.000000  celldm(5)=   0.000000  celldm(6)=   0.000000

     crystal axes: (cart. coord. in units of alat)
               a(1) = (   1.000000   0.000000   0.000000 )  
               a(2) = (   0.000000   2.816343   0.000000 )  
               a(3) = (   0.000000   0.000000   1.877562 )  

     reciprocal axes: (cart. coord. in units 2 pi/alat)
               b(1) = (  1.000000  0.000000  0.000000 )  
               b(2) = (  0.000000  0.355070  0.000000 )  
               b(3) = (  0.000000  0.000000  0.532606 )  


     PseudoPot. # 1 for C  read from file:
     ../PP_LIBRARY/C.pbe-mt_gipaw.UPF
     MD5 check sum: 5ac2f21f2c440b14befe521540822c15
     Pseudo is Norm-conserving, Zval =  4.0
     Generated by new atomic code, or converted to UPF format
     Using radial grid of 1073 points,  1 beta functions with: 
                l(1) =   0

     PseudoPot. # 2 for H  read from file:
     ../PP_LIBRARY/H.pbe-vbc.UPF
     MD5 check sum: 0ad67d0772b4eb71cad78a7d32695431
     Pseudo is Norm-conserving, Zval =  1.0
     Generated by new atomic code, or converted to UPF format
     Using radial grid of  325 points,  0 beta functions with: 

     atomic species   valence    mass     pseudopotential
        C              4.00    12.01070     C ( 1.00)
        H              1.00     1.00790     H ( 1.00)

      8 Sym. Ops., with inversion, found


                                    s                        frac. trans.

      isym =  1     identity                                     

 cryst.   s( 1) = (     1          0          0      )
                  (     0          1          0      )
                  (     0          0          1      )

 cart.    s( 1) = (  1.0000000  0.0000000  0.0000000 )
                  (  0.0000000  1.0000000  0.0000000 )
                  (  0.0000000  0.0000000  1.0000000 )


      isym =  2     180 deg rotation - cart. axis [0,0,1]        

 cryst.   s( 2) = (    -1          0          0      )
                  (     0         -1          0      )
                  (     0          0          1      )

 cart.    s( 2) = ( -1.0000000  0.0000000  0.0000000 )
                  (  0.0000000 -1.0000000  0.0000000 )
                  (  0.0000000  0.0000000  1.0000000 )


      isym =  3     180 deg rotation - cart. axis [0,1,0]        

 cryst.   s( 3) = (    -1          0          0      )
                  (     0          1          0      )
                  (     0          0         -1      )

 cart.    s( 3) = ( -1.0000000  0.0000000  0.0000000 )
                  (  0.0000000  1.0000000  0.0000000 )
                  (  0.0000000  0.0000000 -1.0000000 )


      isym =  4     180 deg rotation - cart. axis [1,0,0]        

 cryst.   s( 4) = (     1          0          0      )
                  (     0         -1          0      )
                  (     0          0         -1      )

 cart.    s( 4) = (  1.0000000  0.0000000  0.0000000 )
                  (  0.0000000 -1.0000000  0.0000000 )
                  (  0.0000000  0.0000000 -1.0000000 )


      isym =  5     inversion                                    

 cryst.   s( 5) = (    -1          0          0      )
                  (     0         -1          0      )
                  (     0          0         -1      )

 cart.    s( 5) = ( -1.0000000  0.0000000  0.0000000 )
                  (  0.0000000 -1.0000000  0.0000000 )
                  (  0.0000000  0.0000000 -1.0000000 )


      isym =  6     inv. 180 deg rotation - cart. axis [0,0,1]   

 cryst.   s( 6) = (     1          0          0      )
                  (     0          1          0      )
                  (     0          0         -1      )

 cart.    s( 6) = (  1.0000000  0.0000000  0.0000000 )
                  (  0.0000000  1.0000000  0.0000000 )
                  (  0.0000000  0.0000000 -1.0000000 )


      isym =  7     inv. 180 deg rotation - cart. axis [0,1,0]   

 cryst.   s( 7) = (     1          0          0      )
                  (     0         -1          0      )
                  (     0          0          1      )

 cart.    s( 7) = (  1.0000000  0.0000000  0.0000000 )
                  (  0.0000000 -1.0000000  0.0000000 )
                  (  0.0000000  0.0000000  1.0000000 )


      isym =  8     inv. 180 deg rotation - cart. axis [1,0,0]   

 cryst.   s( 8) = (    -1          0          0      )
                  (     0          1          0      )
                  (     0          0          1      )

 cart.    s( 8) = ( -1.0000000  0.0000000  0.0000000 )
                  (  0.0000000  1.0000000  0.0000000 )
                  (  0.0000000  0.0000000  1.0000000 )


     point group D_2h (mmm) 
     there are  8 classes
     the character table:

       E     C2_z  C2_y  C2_x  i     s_xy  s_xz  s_yz 
A_g    1.00  1.00  1.00  1.00  1.00  1.00  1.00  1.00
B_1g   1.00  1.00 -1.00 -1.00  1.00  1.00 -1.00 -1.00
B_2g   1.00 -1.00  1.00 -1.00  1.00 -1.00  1.00 -1.00
B_3g   1.00 -1.00 -1.00  1.00  1.00 -1.00 -1.00  1.00
A_u    1.00  1.00  1.00  1.00 -1.00 -1.00 -1.00 -1.00
B_1u   1.00  1.00 -1.00 -1.00 -1.00 -1.00  1.00  1.00
B_2u   1.00 -1.00  1.00 -1.00 -1.00  1.00 -1.00  1.00
B_3u   1.00 -1.00 -1.00  1.00 -1.00  1.00  1.00 -1.00

     the symmetry operations in each class:
     E        1
     C2_z     2
     C2_y     3
     C2_x     4
     i        5
     s_xy     6
     s_xz     7
     s_yz     8

   Cartesian axes

     site n.     atom                  positions (alat units)
         1           H   tau(   1) = (   0.2821088  -0.8057080   0.0000000  )
         2           H   tau(   2) = (   0.7178912  -0.8057080   0.0000000  )
         3           C   tau(   3) = (   0.1584561  -0.5816426   0.0000000  )
         4           C   tau(   4) = (   0.8415439  -0.5816426   0.0000000  )
         5           C   tau(   5) = (   0.3335412  -0.2901528   0.0000000  )
         6           C   tau(   6) = (   0.6664588  -0.2901528   0.0000000  )
         7           C   tau(   7) = (   0.1702008  -0.0000000  -0.0000000  )
         8           C   tau(   8) = (   0.8297992   0.0000000  -0.0000000  )
         9           C   tau(   9) = (   0.3335412   0.2901528  -0.0000000  )
        10           C   tau(  10) = (   0.6664588   0.2901528  -0.0000000  )
        11           C   tau(  11) = (   0.1584561   0.5816426   0.0000000  )
        12           C   tau(  12) = (   0.8415439   0.5816426   0.0000000  )
        13           H   tau(  13) = (   0.2821088   0.8057080  -0.0000000  )
        14           H   tau(  14) = (   0.7178912   0.8057080   0.0000000  )

   Crystallographic axes

     site n.     atom                  positions (cryst. coord.)
         1           H   tau(   1) = (  0.2821088 -0.2860831  0.0000000  )
         2           H   tau(   2) = (  0.7178912 -0.2860831  0.0000000  )
         3           C   tau(   3) = (  0.1584561 -0.2065241  0.0000000  )
         4           C   tau(   4) = (  0.8415439 -0.2065241  0.0000000  )
         5           C   tau(   5) = (  0.3335412 -0.1030247  0.0000000  )
         6           C   tau(   6) = (  0.6664588 -0.1030247  0.0000000  )
         7           C   tau(   7) = (  0.1702008  0.0000000  0.0000000  )
         8           C   tau(   8) = (  0.8297992  0.0000000  0.0000000  )
         9           C   tau(   9) = (  0.3335412  0.1030247  0.0000000  )
        10           C   tau(  10) = (  0.6664588  0.1030247  0.0000000  )
        11           C   tau(  11) = (  0.1584561  0.2065241  0.0000000  )
        12           C   tau(  12) = (  0.8415439  0.2065241  0.0000000  )
        13           H   tau(  13) = (  0.2821088  0.2860831  0.0000000  )
        14           H   tau(  14) = (  0.7178912  0.2860831  0.0000000  )

     number of k points=     2
                       cart. coord. in units 2pi/alat
        k(    1) = (   0.0000000   0.0000000   0.0000000), wk =   1.0000000
        k(    2) = (  -0.5000000   0.0000000   0.0000000), wk =   1.0000000

                       cryst. coord.
        k(    1) = (   0.0000000   0.0000000   0.0000000), wk =   1.0000000
        k(    2) = (  -0.5000000   0.0000000   0.0000000), wk =   1.0000000

     Dense  grid:    77307 G-vectors     FFT dimensions: (  32,  90,  60)

     Largest allocated arrays     est. size (Mb)     dimensions
        Kohn-Sham Wavefunctions         0.82 Mb     (    2434,   22)
        NL pseudopotentials             0.37 Mb     (    2434,   10)
        Each V/rho on FFT grid          0.66 Mb     (   43200)
        Each G-vector array             0.15 Mb     (   19326)
        G-vector shells                 0.05 Mb     (    5970)
     Largest temporary arrays     est. size (Mb)     dimensions
        Auxiliary wavefunctions         3.27 Mb     (    2434,   88)
        Each subspace H/S matrix        0.12 Mb     (      88,   88)
        Each <psi_i|beta_j> matrix      0.00 Mb     (      10,   22)
        Arrays for rho mixing           5.27 Mb     (   43200,    8)

     Initial potential from superposition of free atoms

     starting charge   38.99993, renormalised to   44.00000

     negative rho (up, down):  8.723E-06 0.000E+00
     Starting wfc are   84 randomized atomic wfcs

     total cpu time spent up to now is        4.3 secs

     per-process dynamical memory:    20.0 Mb

     Self-consistent Calculation

     iteration #  1     ecut=    35.00 Ry     beta=0.50
     Davidson diagonalization with overlap
     ethr =  1.00E-02,  avg # of iterations =  2.0

     negative rho (up, down):  1.238E-06 0.000E+00

     total cpu time spent up to now is        5.4 secs

     total energy              =    -118.18635409 Ry
     Harris-Foulkes estimate   =    -118.55528672 Ry
     estimated scf accuracy    <       0.76461436 Ry

     iteration #  2     ecut=    35.00 Ry     beta=0.50
     Davidson diagonalization with overlap
     ethr =  1.74E-03,  avg # of iterations =  3.0

     negative rho (up, down):  1.503E-07 0.000E+00

     total cpu time spent up to now is        6.3 secs

     total energy              =    -118.30178831 Ry
     Harris-Foulkes estimate   =    -118.35174969 Ry
     estimated scf accuracy    <       0.13024100 Ry

     iteration #  3     ecut=    35.00 Ry     beta=0.50
     Davidson diagonalization with overlap
     ethr =  2.96E-04,  avg # of iterations =  3.0

     total cpu time spent up to now is        7.2 secs

     total energy              =    -118.32483552 Ry
     Harris-Foulkes estimate   =    -118.33114111 Ry
     estimated scf accuracy    <       0.02624530 Ry

     iteration #  4     ecut=    35.00 Ry     beta=0.50
     Davidson diagonalization with overlap
     ethr =  5.96E-05,  avg # of iterations =  3.0

     total cpu time spent up to now is        8.1 secs

     total energy              =    -118.32814754 Ry
     Harris-Foulkes estimate   =    -118.32806856 Ry
     estimated scf accuracy    <       0.00190245 Ry

     iteration #  5     ecut=    35.00 Ry     beta=0.50
     Davidson diagonalization with overlap
     ethr =  4.32E-06,  avg # of iterations =  2.5

     total cpu time spent up to now is        8.9 secs

     total energy              =    -118.32828960 Ry
     Harris-Foulkes estimate   =    -118.32831871 Ry
     estimated scf accuracy    <       0.00013535 Ry

     iteration #  6     ecut=    35.00 Ry     beta=0.50
     Davidson diagonalization with overlap
     ethr =  3.08E-07,  avg # of iterations =  3.5

     total cpu time spent up to now is       10.0 secs

     total energy              =    -118.32831773 Ry
     Harris-Foulkes estimate   =    -118.32831808 Ry
     estimated scf accuracy    <       0.00000949 Ry

     iteration #  7     ecut=    35.00 Ry     beta=0.50
     Davidson diagonalization with overlap
     ethr =  2.16E-08,  avg # of iterations =  3.5

     total cpu time spent up to now is       10.9 secs

     total energy              =    -118.32831935 Ry
     Harris-Foulkes estimate   =    -118.32831927 Ry
     estimated scf accuracy    <       0.00000038 Ry

     iteration #  8     ecut=    35.00 Ry     beta=0.50
     Davidson diagonalization with overlap
     ethr =  8.71E-10,  avg # of iterations =  3.5

     total cpu time spent up to now is       12.0 secs

     total energy              =    -118.32831946 Ry
     Harris-Foulkes estimate   =    -118.32831947 Ry
     estimated scf accuracy    <       0.00000004 Ry

     iteration #  9     ecut=    35.00 Ry     beta=0.50
     Davidson diagonalization with overlap
     ethr =  9.04E-11,  avg # of iterations =  3.5

     total cpu time spent up to now is       13.2 secs

     total energy              =    -118.32831947 Ry
     Harris-Foulkes estimate   =    -118.32831947 Ry
     estimated scf accuracy    <          8.9E-09 Ry

     iteration # 10     ecut=    35.00 Ry     beta=0.50
     Davidson diagonalization with overlap
     ethr =  2.03E-11,  avg # of iterations =  3.5

     total cpu time spent up to now is       15.0 secs

     End of self-consistent calculation

          k = 0.0000 0.0000 0.0000 (  9697 PWs)   bands (ev):

   -20.2565 -18.7297 -16.6207 -14.9786 -14.5016 -14.0647 -13.4814 -11.4216
   -11.3106 -10.6028  -9.4062  -9.0055  -8.5576  -8.2639  -7.2816  -6.6184
    -6.3500  -5.1590  -4.7380  -4.2797  -2.9182  -1.7820

     occupation numbers 
     1.0000   1.0000   1.0000   1.0000   1.0000   1.0000   1.0000   1.0000
     1.0000   1.0000   1.0000   1.0000   1.0000   1.0000   1.0000   1.0000
     1.0000   1.0000   1.0000   1.0000   1.0000   1.0000

          k =-0.5000 0.0000 0.0000 (  9624 PWs)   bands (ev):

   -18.8400 -18.7469 -17.6062 -17.0217 -15.9137 -13.8094 -12.6093 -11.3625
    -9.7641  -9.0260  -7.9385  -7.7316  -7.6022  -7.4337  -7.2501  -7.1390
    -6.6333  -6.5739  -6.5354  -5.2499  -4.8741  -3.8948

     occupation numbers 
     1.0000   1.0000   1.0000   1.0000   1.0000   1.0000   1.0000   1.0000
     1.0000   1.0000   1.0000   1.0000   1.0000   1.0000   1.0000   1.0000
     1.0000   1.0000   1.0000   1.0000   1.0000   1.0000

     highest occupied level (ev):    -1.7820

!    total energy              =    -118.32831947 Ry
     Harris-Foulkes estimate   =    -118.32831947 Ry
     estimated scf accuracy    <          6.4E-10 Ry

     The total energy is the sum of the following terms:

     one-electron contribution =    -424.91574684 Ry
     hartree contribution      =     220.69370846 Ry
     xc contribution           =     -37.75989094 Ry
     ewald contribution        =     123.65360985 Ry

     convergence has been achieved in  10 iterations

     Forces acting on atoms (Ry/au):

     atom    1 type  2   force =     0.00001353   -0.00001415    0.00000000
     atom    2 type  2   force =    -0.00001353   -0.00001415   -0.00000000
     atom    3 type  1   force =    -0.00003333    0.00002272   -0.00000000
     atom    4 type  1   force =     0.00003333    0.00002272    0.00000000
     atom    5 type  1   force =    -0.00010019   -0.00000721    0.00000000
     atom    6 type  1   force =     0.00010019   -0.00000721    0.00000000
     atom    7 type  1   force =     0.00007224    0.00000000   -0.00000000
     atom    8 type  1   force =    -0.00007224    0.00000000   -0.00000000
     atom    9 type  1   force =    -0.00010019    0.00000721    0.00000000
     atom   10 type  1   force =     0.00010019    0.00000721    0.00000000
     atom   11 type  1   force =    -0.00003333   -0.00002272    0.00000000
     atom   12 type  1   force =     0.00003333   -0.00002272    0.00000000
     atom   13 type  2   force =     0.00001353    0.00001415   -0.00000000
     atom   14 type  2   force =    -0.00001353    0.00001415    0.00000000
     The non-local contrib.  to forces
     atom    1 type  2   force =     0.00000000    0.00000000    0.00000000
     atom    2 type  2   force =     0.00000000    0.00000000    0.00000000
     atom    3 type  1   force =     0.19531968    0.05681155    0.00000000
     atom    4 type  1   force =    -0.19531968    0.05681155   -0.00000000
     atom    5 type  1   force =    -0.03620684   -0.03804962    0.00000000
     atom    6 type  1   force =     0.03620684   -0.03804962    0.00000000
     atom    7 type  1   force =    -0.06347559    0.00000000    0.00000000
     atom    8 type  1   force =     0.06347559   -0.00000000    0.00000000
     atom    9 type  1   force =    -0.03620684    0.03804962   -0.00000000
     atom   10 type  1   force =     0.03620684    0.03804962    0.00000000
     atom   11 type  1   force =     0.19531968   -0.05681155    0.00000000
     atom   12 type  1   force =    -0.19531968   -0.05681155    0.00000000
     atom   13 type  2   force =     0.00000000    0.00000000    0.00000000
     atom   14 type  2   force =     0.00000000    0.00000000    0.00000000
     The ionic contribution  to forces
     atom    1 type  2   force =     0.85190459   -3.63843068   -0.00000000
     atom    2 type  2   force =    -0.85190459   -3.63843068   -0.00000000
     atom    3 type  1   force =     1.65665945   -8.86542862   -0.00000000
     atom    4 type  1   force =    -1.65665945   -8.86542862   -0.00000000
     atom    5 type  1   force =     0.08766051   -4.30413234   -0.00000000
     atom    6 type  1   force =    -0.08766051   -4.30413234   -0.00000000
     atom    7 type  1   force =    -0.14294636    0.00000000   -0.00000000
     atom    8 type  1   force =     0.14294636   -0.00000000   -0.00000000
     atom    9 type  1   force =     0.08766051    4.30413234   -0.00000000
     atom   10 type  1   force =    -0.08766051    4.30413234   -0.00000000
     atom   11 type  1   force =     1.65665945    8.86542862   -0.00000000
     atom   12 type  1   force =    -1.65665945    8.86542862   -0.00000000
     atom   13 type  2   force =     0.85190459    3.63843068   -0.00000000
     atom   14 type  2   force =    -0.85190459    3.63843068   -0.00000000
     The local contribution  to forces
     atom    1 type  2   force =    -0.85189178    3.63841802    0.00000000
     atom    2 type  2   force =     0.85189178    3.63841802    0.00000000
     atom    3 type  1   force =    -1.85201550    8.80863409    0.00000000
     atom    4 type  1   force =     1.85201550    8.80863409    0.00000000
     atom    5 type  1   force =    -0.05154930    4.34215240    0.00000000
     atom    6 type  1   force =     0.05154930    4.34215240    0.00000000
     atom    7 type  1   force =     0.20650390    0.00000000    0.00000000
     atom    8 type  1   force =    -0.20650390   -0.00000000    0.00000000
     atom    9 type  1   force =    -0.05154930   -4.34215240    0.00000000
     atom   10 type  1   force =     0.05154930   -4.34215240    0.00000000
     atom   11 type  1   force =    -1.85201550   -8.80863409    0.00000000
     atom   12 type  1   force =     1.85201550   -8.80863409    0.00000000
     atom   13 type  2   force =    -0.85189178   -3.63841802    0.00000000
     atom   14 type  2   force =     0.85189178   -3.63841802    0.00000000
     The core correction contribution to forces
     atom    1 type  2   force =     0.00000000    0.00000000    0.00000000
     atom    2 type  2   force =     0.00000000    0.00000000    0.00000000
     atom    3 type  1   force =     0.00000000    0.00000000    0.00000000
     atom    4 type  1   force =     0.00000000    0.00000000    0.00000000
     atom    5 type  1   force =     0.00000000    0.00000000    0.00000000
     atom    6 type  1   force =     0.00000000    0.00000000    0.00000000
     atom    7 type  1   force =     0.00000000    0.00000000    0.00000000
     atom    8 type  1   force =     0.00000000    0.00000000    0.00000000
     atom    9 type  1   force =     0.00000000    0.00000000    0.00000000
     atom   10 type  1   force =     0.00000000    0.00000000    0.00000000
     atom   11 type  1   force =     0.00000000    0.00000000    0.00000000
     atom   12 type  1   force =     0.00000000    0.00000000    0.00000000
     atom   13 type  2   force =     0.00000000    0.00000000    0.00000000
     atom   14 type  2   force =     0.00000000    0.00000000    0.00000000
     The Hubbard contrib.    to forces
     atom    1 type  2   force =     0.00000000    0.00000000    0.00000000
     atom    2 type  2   force =     0.00000000    0.00000000    0.00000000
     atom    3 type  1   force =     0.00000000    0.00000000    0.00000000
     atom    4 type  1   force =     0.00000000    0.00000000    0.00000000
     atom    5 type  1   force =     0.00000000    0.00000000    0.00000000
     atom    6 type  1   force =     0.00000000    0.00000000    0.00000000
     atom    7 type  1   force =     0.00000000    0.00000000    0.00000000
     atom    8 type  1   force =     0.00000000    0.00000000    0.00000000
     atom    9 type  1   force =     0.00000000    0.00000000    0.00000000
     atom   10 type  1   force =     0.00000000    0.00000000    0.00000000
     atom   11 type  1   force =     0.00000000    0.00000000    0.00000000
     atom   12 type  1   force =     0.00000000    0.00000000    0.00000000
     atom   13 type  2   force =     0.00000000    0.00000000    0.00000000
     atom   14 type  2   force =     0.00000000    0.00000000    0.00000000
     The SCF correction term to forces
     atom    1 type  2   force =     0.00000071   -0.00000150   -0.00000000
     atom    2 type  2   force =    -0.00000071   -0.00000150   -0.00000000
     atom    3 type  1   force =     0.00000304    0.00000571   -0.00000000
     atom    4 type  1   force =    -0.00000304    0.00000571   -0.00000000
     atom    5 type  1   force =    -0.00000456    0.00002234   -0.00000000
     atom    6 type  1   force =     0.00000456    0.00002234   -0.00000000
     atom    7 type  1   force =    -0.00000971    0.00000000   -0.00000000
     atom    8 type  1   force =     0.00000971    0.00000000   -0.00000000
     atom    9 type  1   force =    -0.00000456   -0.00002234   -0.00000000
     atom   10 type  1   force =     0.00000456   -0.00002234   -0.00000000
     atom   11 type  1   force =     0.00000304   -0.00000571   -0.00000000
     atom   12 type  1   force =    -0.00000304   -0.00000571   -0.00000000
     atom   13 type  2   force =     0.00000071    0.00000150   -0.00000000
     atom   14 type  2   force =    -0.00000071    0.00000150   -0.00000000

     Total force =     0.000243     Total SCF correction =     0.000049
     SCF correction compared to forces is large: reduce conv_thr to get better values

     BFGS Geometry Optimization

     number of scf cycles    =   1
     number of bfgs steps    =   0

     energy   new            =    -118.3283194723 Ry

     new trust radius        =       0.0001004534 bohr
     new conv_thr            =       0.0000000010 Ry


ATOMIC_POSITIONS (alat)
H        0.282110472  -0.805709806   0.000000000
H        0.717889528  -0.805709806  -0.000000000
C        0.158451928  -0.581639820  -0.000000000
C        0.841548072  -0.581639820   0.000000000
C        0.333528729  -0.290153671   0.000000000
C        0.666471271  -0.290153671   0.000000000
C        0.170209785   0.000000000  -0.000000000
C        0.829790215   0.000000000  -0.000000000
C        0.333528729   0.290153671   0.000000000
C        0.666471271   0.290153671   0.000000000
C        0.158451928   0.581639820   0.000000000
C        0.841548072   0.581639820   0.000000000
H        0.282110472   0.805709806  -0.000000000
H        0.717889528   0.805709806   0.000000000



     Writing output data file gar-w_03-1H.save
     NEW-OLD atomic charge density approx. for the potential

     total cpu time spent up to now is       20.0 secs

     per-process dynamical memory:    19.5 Mb

     Self-consistent Calculation

     iteration #  1     ecut=    35.00 Ry     beta=0.50
     Davidson diagonalization with overlap
     ethr =  1.00E-06,  avg # of iterations =  1.0

     Threshold (ethr) on eigenvalues was too large:
     Diagonalizing with lowered threshold

     Davidson diagonalization with overlap
     ethr =  1.10E-11,  avg # of iterations =  4.0

     total cpu time spent up to now is       23.9 secs

     total energy              =    -118.32831946 Ry
     Harris-Foulkes estimate   =    -118.32831948 Ry
     estimated scf accuracy    <       0.00000003 Ry

     iteration #  2     ecut=    35.00 Ry     beta=0.50
     Davidson diagonalization with overlap
     ethr =  7.14E-11,  avg # of iterations =  3.0

     total cpu time spent up to now is       25.6 secs

     total energy              =    -118.32831947 Ry
     Harris-Foulkes estimate   =    -118.32831947 Ry
     estimated scf accuracy    <          6.3E-09 Ry

     iteration #  3     ecut=    35.00 Ry     beta=0.50
     Davidson diagonalization with overlap
     ethr =  1.43E-11,  avg # of iterations =  3.5

     total cpu time spent up to now is       27.3 secs

     End of self-consistent calculation

          k = 0.0000 0.0000 0.0000 (  9697 PWs)   bands (ev):

   -20.2565 -18.7297 -16.6208 -14.9789 -14.5014 -14.0640 -13.4817 -11.4218
   -11.3105 -10.6028  -9.4061  -9.0056  -8.5579  -8.2639  -7.2812  -6.6184
    -6.3500  -5.1581  -4.7385  -4.2798  -2.9188  -1.7816

     occupation numbers 
     1.0000   1.0000   1.0000   1.0000   1.0000   1.0000   1.0000   1.0000
     1.0000   1.0000   1.0000   1.0000   1.0000   1.0000   1.0000   1.0000
     1.0000   1.0000   1.0000   1.0000   1.0000   1.0000

          k =-0.5000 0.0000 0.0000 (  9624 PWs)   bands (ev):

   -18.8402 -18.7467 -17.6065 -17.0213 -15.9139 -13.8094 -12.6096 -11.3623
    -9.7641  -9.0252  -7.9383  -7.7312  -7.6021  -7.4338  -7.2502  -7.1396
    -6.6334  -6.5741  -6.5353  -5.2501  -4.8737  -3.8948

     occupation numbers 
     1.0000   1.0000   1.0000   1.0000   1.0000   1.0000   1.0000   1.0000
     1.0000   1.0000   1.0000   1.0000   1.0000   1.0000   1.0000   1.0000
     1.0000   1.0000   1.0000   1.0000   1.0000   1.0000

     highest occupied level (ev):    -1.7816

!    total energy              =    -118.32831947 Ry
     Harris-Foulkes estimate   =    -118.32831947 Ry
     estimated scf accuracy    <          7.4E-10 Ry

     The total energy is the sum of the following terms:

     one-electron contribution =    -424.91730758 Ry
     hartree contribution      =     220.69455765 Ry
     xc contribution           =     -37.75988585 Ry
     ewald contribution        =     123.65431631 Ry

     convergence has been achieved in   3 iterations

     Forces acting on atoms (Ry/au):

     atom    1 type  2   force =    -0.00000240    0.00001928    0.00000000
     atom    2 type  2   force =     0.00000240    0.00001928    0.00000000
     atom    3 type  1   force =     0.00003361   -0.00003826   -0.00000000
     atom    4 type  1   force =    -0.00003361   -0.00003826    0.00000000
     atom    5 type  1   force =     0.00010321    0.00000869   -0.00000000
     atom    6 type  1   force =    -0.00010321    0.00000869   -0.00000000
     atom    7 type  1   force =    -0.00008343    0.00000000    0.00000000
     atom    8 type  1   force =     0.00008343    0.00000000   -0.00000000
     atom    9 type  1   force =     0.00010321   -0.00000869    0.00000000
     atom   10 type  1   force =    -0.00010321   -0.00000869    0.00000000
     atom   11 type  1   force =     0.00003361    0.00003826    0.00000000
     atom   12 type  1   force =    -0.00003361    0.00003826    0.00000000
     atom   13 type  2   force =    -0.00000240   -0.00001928    0.00000000
     atom   14 type  2   force =     0.00000240   -0.00001928    0.00000000
     The non-local contrib.  to forces
     atom    1 type  2   force =     0.00000000    0.00000000    0.00000000
     atom    2 type  2   force =     0.00000000    0.00000000    0.00000000
     atom    3 type  1   force =     0.19544932    0.05671815    0.00000000
     atom    4 type  1   force =    -0.19544932    0.05671815    0.00000000
     atom    5 type  1   force =    -0.03586755   -0.03804004   -0.00000000
     atom    6 type  1   force =     0.03586755   -0.03804004   -0.00000000
     atom    7 type  1   force =    -0.06372432    0.00000000    0.00000000
     atom    8 type  1   force =     0.06372432    0.00000000    0.00000000
     atom    9 type  1   force =    -0.03586755    0.03804004    0.00000000
     atom   10 type  1   force =     0.03586755    0.03804004   -0.00000000
     atom   11 type  1   force =     0.19544932   -0.05671815   -0.00000000
     atom   12 type  1   force =    -0.19544932   -0.05671815    0.00000000
     atom   13 type  2   force =     0.00000000    0.00000000    0.00000000
     atom   14 type  2   force =     0.00000000    0.00000000    0.00000000
     The ionic contribution  to forces
     atom    1 type  2   force =     0.85188223   -3.63833298    0.00000000
     atom    2 type  2   force =    -0.85188223   -3.63833298   -0.00000000
     atom    3 type  1   force =     1.65703213   -8.86574822   -0.00000000
     atom    4 type  1   force =    -1.65703213   -8.86574822    0.00000000
     atom    5 type  1   force =     0.08859861   -4.30425321    0.00000000
     atom    6 type  1   force =    -0.08859861   -4.30425321    0.00000000
     atom    7 type  1   force =    -0.14328738   -0.00000000   -0.00000000
     atom    8 type  1   force =     0.14328738    0.00000000   -0.00000000
     atom    9 type  1   force =     0.08859861    4.30425321    0.00000000
     atom   10 type  1   force =    -0.08859861    4.30425321    0.00000000
     atom   11 type  1   force =     1.65703213    8.86574822    0.00000000
     atom   12 type  1   force =    -1.65703213    8.86574822    0.00000000
     atom   13 type  2   force =     0.85188223    3.63833298   -0.00000000
     atom   14 type  2   force =    -0.85188223    3.63833298    0.00000000
     The local contribution  to forces
     atom    1 type  2   force =    -0.85188349    3.63835085   -0.00000000
     atom    2 type  2   force =     0.85188349    3.63835085   -0.00000000
     atom    3 type  1   force =    -1.85244741    8.80900050   -0.00000000
     atom    4 type  1   force =     1.85244741    8.80900050   -0.00000000
     atom    5 type  1   force =    -0.05263820    4.34232020   -0.00000000
     atom    6 type  1   force =     0.05263820    4.34232020   -0.00000000
     atom    7 type  1   force =     0.20692747    0.00000000   -0.00000000
     atom    8 type  1   force =    -0.20692747   -0.00000000   -0.00000000
     atom    9 type  1   force =    -0.05263820   -4.34232020   -0.00000000
     atom   10 type  1   force =     0.05263820   -4.34232020   -0.00000000
     atom   11 type  1   force =    -1.85244741   -8.80900050   -0.00000000
     atom   12 type  1   force =     1.85244741   -8.80900050   -0.00000000
     atom   13 type  2   force =    -0.85188349   -3.63835085   -0.00000000
     atom   14 type  2   force =     0.85188349   -3.63835085   -0.00000000
     The core correction contribution to forces
     atom    1 type  2   force =     0.00000000    0.00000000    0.00000000
     atom    2 type  2   force =     0.00000000    0.00000000    0.00000000
     atom    3 type  1   force =     0.00000000    0.00000000    0.00000000
     atom    4 type  1   force =     0.00000000    0.00000000    0.00000000
     atom    5 type  1   force =     0.00000000    0.00000000    0.00000000
     atom    6 type  1   force =     0.00000000    0.00000000    0.00000000
     atom    7 type  1   force =     0.00000000    0.00000000    0.00000000
     atom    8 type  1   force =     0.00000000    0.00000000    0.00000000
     atom    9 type  1   force =     0.00000000    0.00000000    0.00000000
     atom   10 type  1   force =     0.00000000    0.00000000    0.00000000
     atom   11 type  1   force =     0.00000000    0.00000000    0.00000000
     atom   12 type  1   force =     0.00000000    0.00000000    0.00000000
     atom   13 type  2   force =     0.00000000    0.00000000    0.00000000
     atom   14 type  2   force =     0.00000000    0.00000000    0.00000000
     The Hubbard contrib.    to forces
     atom    1 type  2   force =     0.00000000    0.00000000    0.00000000
     atom    2 type  2   force =     0.00000000    0.00000000    0.00000000
     atom    3 type  1   force =     0.00000000    0.00000000    0.00000000
     atom    4 type  1   force =     0.00000000    0.00000000    0.00000000
     atom    5 type  1   force =     0.00000000    0.00000000    0.00000000
     atom    6 type  1   force =     0.00000000    0.00000000    0.00000000
     atom    7 type  1   force =     0.00000000    0.00000000    0.00000000
     atom    8 type  1   force =     0.00000000    0.00000000    0.00000000
     atom    9 type  1   force =     0.00000000    0.00000000    0.00000000
     atom   10 type  1   force =     0.00000000    0.00000000    0.00000000
     atom   11 type  1   force =     0.00000000    0.00000000    0.00000000
     atom   12 type  1   force =     0.00000000    0.00000000    0.00000000
     atom   13 type  2   force =     0.00000000    0.00000000    0.00000000
     atom   14 type  2   force =     0.00000000    0.00000000    0.00000000
     The SCF correction term to forces
     atom    1 type  2   force =    -0.00000113    0.00000141    0.00000000
     atom    2 type  2   force =     0.00000113    0.00000141    0.00000000
     atom    3 type  1   force =    -0.00000044   -0.00000868    0.00000000
     atom    4 type  1   force =     0.00000044   -0.00000868    0.00000000
     atom    5 type  1   force =     0.00001035   -0.00001826   -0.00000000
     atom    6 type  1   force =    -0.00001035   -0.00001826   -0.00000000
     atom    7 type  1   force =     0.00000079    0.00000000   -0.00000000
     atom    8 type  1   force =    -0.00000079    0.00000000   -0.00000000
     atom    9 type  1   force =     0.00001035    0.00001826   -0.00000000
     atom   10 type  1   force =    -0.00001035    0.00001826   -0.00000000
     atom   11 type  1   force =    -0.00000044    0.00000868   -0.00000000
     atom   12 type  1   force =     0.00000044    0.00000868   -0.00000000
     atom   13 type  2   force =    -0.00000113   -0.00000141   -0.00000000
     atom   14 type  2   force =     0.00000113   -0.00000141   -0.00000000

     Total force =     0.000262     Total SCF correction =     0.000046
     SCF correction compared to forces is large: reduce conv_thr to get better values

     number of scf cycles    =   2
     number of bfgs steps    =   1

     energy   old            =    -118.3283194723 Ry
     energy   new            =    -118.3283194702 Ry

     CASE: energy  _new > energy  _old

     new trust radius        =       0.0000484967 bohr

     trust_radius < trust_radius_min

     resetting bfgs history

     new conv_thr            =       0.0000000010 Ry


ATOMIC_POSITIONS (alat)
H        0.282110472  -0.805709806   0.000000000
H        0.717889528  -0.805709806  -0.000000000
C        0.158451928  -0.581639820  -0.000000000
C        0.841548072  -0.581639820   0.000000000
C        0.333528729  -0.290153671   0.000000000
C        0.666471271  -0.290153671   0.000000000
C        0.170209785   0.000000000  -0.000000000
C        0.829790215   0.000000000  -0.000000000
C        0.333528729   0.290153671   0.000000000
C        0.666471271   0.290153671   0.000000000
C        0.158451928   0.581639820   0.000000000
C        0.841548072   0.581639820   0.000000000
H        0.282110472   0.805709806  -0.000000000
H        0.717889528   0.805709806   0.000000000



     Writing output data file gar-w_03-1H.save
     NEW-OLD atomic charge density approx. for the potential

     total cpu time spent up to now is       32.4 secs

     per-process dynamical memory:    24.0 Mb

     Self-consistent Calculation

     iteration #  1     ecut=    35.00 Ry     beta=0.50
     Davidson diagonalization with overlap
     ethr =  1.00E-06,  avg # of iterations =  1.0

     Threshold (ethr) on eigenvalues was too large:
     Diagonalizing with lowered threshold

     Davidson diagonalization with overlap
     ethr =  1.45E-12,  avg # of iterations =  4.5

     total cpu time spent up to now is       34.5 secs

     total energy              =    -118.32831947 Ry
     Harris-Foulkes estimate   =    -118.32831947 Ry
     estimated scf accuracy    <          2.2E-09 Ry

     iteration #  2     ecut=    35.00 Ry     beta=0.50
     Davidson diagonalization with overlap
     ethr =  4.97E-12,  avg # of iterations =  3.5

     total cpu time spent up to now is       35.6 secs

     total energy              =    -118.32831947 Ry
     Harris-Foulkes estimate   =    -118.32831947 Ry
     estimated scf accuracy    <          1.4E-09 Ry

     iteration #  3     ecut=    35.00 Ry     beta=0.50
     Davidson diagonalization with overlap
     ethr =  3.08E-12,  avg # of iterations =  3.5

     total cpu time spent up to now is       36.4 secs

     End of self-consistent calculation

          k = 0.0000 0.0000 0.0000 (  9697 PWs)   bands (ev):

   -20.2565 -18.7297 -16.6208 -14.9789 -14.5014 -14.0640 -13.4817 -11.4218
   -11.3105 -10.6028  -9.4061  -9.0056  -8.5579  -8.2639  -7.2812  -6.6184
    -6.3500  -5.1581  -4.7385  -4.2798  -2.9188  -1.7816

     occupation numbers 
     1.0000   1.0000   1.0000   1.0000   1.0000   1.0000   1.0000   1.0000
     1.0000   1.0000   1.0000   1.0000   1.0000   1.0000   1.0000   1.0000
     1.0000   1.0000   1.0000   1.0000   1.0000   1.0000

          k =-0.5000 0.0000 0.0000 (  9624 PWs)   bands (ev):

   -18.8402 -18.7467 -17.6065 -17.0214 -15.9138 -13.8094 -12.6096 -11.3623
    -9.7641  -9.0252  -7.9383  -7.7312  -7.6021  -7.4338  -7.2502  -7.1396
    -6.6334  -6.5741  -6.5352  -5.2501  -4.8737  -3.8948

     occupation numbers 
     1.0000   1.0000   1.0000   1.0000   1.0000   1.0000   1.0000   1.0000
     1.0000   1.0000   1.0000   1.0000   1.0000   1.0000   1.0000   1.0000
     1.0000   1.0000   1.0000   1.0000   1.0000   1.0000

     highest occupied level (ev):    -1.7816

!    total energy              =    -118.32831947 Ry
     Harris-Foulkes estimate   =    -118.32831947 Ry
     estimated scf accuracy    <          1.8E-12 Ry

     The total energy is the sum of the following terms:

     one-electron contribution =    -424.91724859 Ry
     hartree contribution      =     220.69450009 Ry
     xc contribution           =     -37.75988729 Ry
     ewald contribution        =     123.65431631 Ry

     convergence has been achieved in   3 iterations

     Forces acting on atoms (Ry/au):

     atom    1 type  2   force =    -0.00000314    0.00002037   -0.00000000
     atom    2 type  2   force =     0.00000314    0.00002037    0.00000000
     atom    3 type  1   force =     0.00003340   -0.00003915    0.00000000
     atom    4 type  1   force =    -0.00003340   -0.00003915    0.00000000
     atom    5 type  1   force =     0.00010660    0.00000345    0.00000000
     atom    6 type  1   force =    -0.00010660    0.00000345    0.00000000
     atom    7 type  1   force =    -0.00008255    0.00000000   -0.00000000
     atom    8 type  1   force =     0.00008255    0.00000000   -0.00000000
     atom    9 type  1   force =     0.00010660   -0.00000345    0.00000000
     atom   10 type  1   force =    -0.00010660   -0.00000345    0.00000000
     atom   11 type  1   force =     0.00003340    0.00003915    0.00000000
     atom   12 type  1   force =    -0.00003340    0.00003915    0.00000000
     atom   13 type  2   force =    -0.00000314   -0.00002037    0.00000000
     atom   14 type  2   force =     0.00000314   -0.00002037   -0.00000000
     The non-local contrib.  to forces
     atom    1 type  2   force =     0.00000000    0.00000000    0.00000000
     atom    2 type  2   force =     0.00000000    0.00000000    0.00000000
     atom    3 type  1   force =     0.19544294    0.05671954    0.00000000
     atom    4 type  1   force =    -0.19544294    0.05671954    0.00000000
     atom    5 type  1   force =    -0.03587767   -0.03804573   -0.00000000
     atom    6 type  1   force =     0.03587767   -0.03804573   -0.00000000
     atom    7 type  1   force =    -0.06371451    0.00000000    0.00000000
     atom    8 type  1   force =     0.06371451    0.00000000    0.00000000
     atom    9 type  1   force =    -0.03587767    0.03804573   -0.00000000
     atom   10 type  1   force =     0.03587767    0.03804573    0.00000000
     atom   11 type  1   force =     0.19544294   -0.05671954    0.00000000
     atom   12 type  1   force =    -0.19544294   -0.05671954    0.00000000
     atom   13 type  2   force =     0.00000000    0.00000000    0.00000000
     atom   14 type  2   force =     0.00000000    0.00000000    0.00000000
     The ionic contribution  to forces
     atom    1 type  2   force =     0.85188223   -3.63833298    0.00000000
     atom    2 type  2   force =    -0.85188223   -3.63833298   -0.00000000
     atom    3 type  1   force =     1.65703213   -8.86574822   -0.00000000
     atom    4 type  1   force =    -1.65703213   -8.86574822    0.00000000
     atom    5 type  1   force =     0.08859861   -4.30425321    0.00000000
     atom    6 type  1   force =    -0.08859861   -4.30425321    0.00000000
     atom    7 type  1   force =    -0.14328738   -0.00000000   -0.00000000
     atom    8 type  1   force =     0.14328738    0.00000000   -0.00000000
     atom    9 type  1   force =     0.08859861    4.30425321    0.00000000
     atom   10 type  1   force =    -0.08859861    4.30425321    0.00000000
     atom   11 type  1   force =     1.65703213    8.86574822    0.00000000
     atom   12 type  1   force =    -1.65703213    8.86574822    0.00000000
     atom   13 type  2   force =     0.85188223    3.63833298   -0.00000000
     atom   14 type  2   force =    -0.85188223    3.63833298    0.00000000
     The local contribution  to forces
     atom    1 type  2   force =    -0.85188537    3.63835334    0.00000000
     atom    2 type  2   force =     0.85188537    3.63835334    0.00000000
     atom    3 type  1   force =    -1.85244147    8.80898924    0.00000000
     atom    4 type  1   force =     1.85244147    8.80898924    0.00000000
     atom    5 type  1   force =    -0.05261377    4.34230247    0.00000000
     atom    6 type  1   force =     0.05261377    4.34230247    0.00000000
     atom    7 type  1   force =     0.20691836   -0.00000000    0.00000000
     atom    8 type  1   force =    -0.20691836    0.00000000    0.00000000
     atom    9 type  1   force =    -0.05261377   -4.34230247    0.00000000
     atom   10 type  1   force =     0.05261377   -4.34230247    0.00000000
     atom   11 type  1   force =    -1.85244147   -8.80898924    0.00000000
     atom   12 type  1   force =     1.85244147   -8.80898924    0.00000000
     atom   13 type  2   force =    -0.85188537   -3.63835334    0.00000000
     atom   14 type  2   force =     0.85188537   -3.63835334    0.00000000
     The core correction contribution to forces
     atom    1 type  2   force =     0.00000000    0.00000000    0.00000000
     atom    2 type  2   force =     0.00000000    0.00000000    0.00000000
     atom    3 type  1   force =     0.00000000    0.00000000    0.00000000
     atom    4 type  1   force =     0.00000000    0.00000000    0.00000000
     atom    5 type  1   force =     0.00000000    0.00000000    0.00000000
     atom    6 type  1   force =     0.00000000    0.00000000    0.00000000
     atom    7 type  1   force =     0.00000000    0.00000000    0.00000000
     atom    8 type  1   force =     0.00000000    0.00000000    0.00000000
     atom    9 type  1   force =     0.00000000    0.00000000    0.00000000
     atom   10 type  1   force =     0.00000000    0.00000000    0.00000000
     atom   11 type  1   force =     0.00000000    0.00000000    0.00000000
     atom   12 type  1   force =     0.00000000    0.00000000    0.00000000
     atom   13 type  2   force =     0.00000000    0.00000000    0.00000000
     atom   14 type  2   force =     0.00000000    0.00000000    0.00000000
     The Hubbard contrib.    to forces
     atom    1 type  2   force =     0.00000000    0.00000000    0.00000000
     atom    2 type  2   force =     0.00000000    0.00000000    0.00000000
     atom    3 type  1   force =     0.00000000    0.00000000    0.00000000
     atom    4 type  1   force =     0.00000000    0.00000000    0.00000000
     atom    5 type  1   force =     0.00000000    0.00000000    0.00000000
     atom    6 type  1   force =     0.00000000    0.00000000    0.00000000
     atom    7 type  1   force =     0.00000000    0.00000000    0.00000000
     atom    8 type  1   force =     0.00000000    0.00000000    0.00000000
     atom    9 type  1   force =     0.00000000    0.00000000    0.00000000
     atom   10 type  1   force =     0.00000000    0.00000000    0.00000000
     atom   11 type  1   force =     0.00000000    0.00000000    0.00000000
     atom   12 type  1   force =     0.00000000    0.00000000    0.00000000
     atom   13 type  2   force =     0.00000000    0.00000000    0.00000000
     atom   14 type  2   force =     0.00000000    0.00000000    0.00000000
     The SCF correction term to forces
     atom    1 type  2   force =     0.00000001    0.00000001   -0.00000000
     atom    2 type  2   force =    -0.00000001    0.00000001   -0.00000000
     atom    3 type  1   force =    -0.00000020    0.00000028   -0.00000000
     atom    4 type  1   force =     0.00000020    0.00000028   -0.00000000
     atom    5 type  1   force =    -0.00000056   -0.00000008    0.00000000
     atom    6 type  1   force =     0.00000056   -0.00000008    0.00000000
     atom    7 type  1   force =     0.00000098    0.00000000    0.00000000
     atom    8 type  1   force =    -0.00000098    0.00000000    0.00000000
     atom    9 type  1   force =    -0.00000056    0.00000008    0.00000000
     atom   10 type  1   force =     0.00000056    0.00000008    0.00000000
     atom   11 type  1   force =    -0.00000020   -0.00000028    0.00000000
     atom   12 type  1   force =     0.00000020   -0.00000028    0.00000000
     atom   13 type  2   force =     0.00000001   -0.00000001   -0.00000000
     atom   14 type  2   force =    -0.00000001   -0.00000001   -0.00000000

     Total force =     0.000267     Total SCF correction =     0.000002

     number of scf cycles    =   3
     number of bfgs steps    =   1

     energy   old            =    -118.3283194723 Ry
     energy   new            =    -118.3283194705 Ry

     CASE: energy  _new > energy  _old

     new trust radius        =       0.0000487238 bohr

     trust_radius < trust_radius_min

     resetting bfgs history

     Message from routine bfgs:
     history already reset at previous step: stopping
     new conv_thr            =       0.0000000010 Ry


ATOMIC_POSITIONS (alat)
H        0.282110472  -0.805709806   0.000000000
H        0.717889528  -0.805709806  -0.000000000
C        0.158451928  -0.581639820  -0.000000000
C        0.841548072  -0.581639820   0.000000000
C        0.333528729  -0.290153671   0.000000000
C        0.666471271  -0.290153671   0.000000000
C        0.170209785   0.000000000  -0.000000000
C        0.829790215   0.000000000  -0.000000000
C        0.333528729   0.290153671   0.000000000
C        0.666471271   0.290153671   0.000000000
C        0.158451928   0.581639820   0.000000000
C        0.841548072   0.581639820   0.000000000
H        0.282110472   0.805709806  -0.000000000
H        0.717889528   0.805709806   0.000000000



     Writing output data file gar-w_03-1H.save
     NEW-OLD atomic charge density approx. for the potential

     total cpu time spent up to now is       41.4 secs

     per-process dynamical memory:    24.0 Mb

     Self-consistent Calculation

     iteration #  1     ecut=    35.00 Ry     beta=0.50
     Davidson diagonalization with overlap
     ethr =  1.00E-06,  avg # of iterations =  1.0

     Threshold (ethr) on eigenvalues was too large:
     Diagonalizing with lowered threshold

     Davidson diagonalization with overlap
     ethr =  1.25E-15,  avg # of iterations = 23.5

     total cpu time spent up to now is       48.4 secs

     End of self-consistent calculation

          k = 0.0000 0.0000 0.0000 (  9697 PWs)   bands (ev):

   -20.2565 -18.7298 -16.6208 -14.9789 -14.5014 -14.0639 -13.4817 -11.4218
   -11.3105 -10.6028  -9.4061  -9.0056  -8.5579  -8.2639  -7.2812  -6.6184
    -6.3500  -5.1581  -4.7385  -4.2798  -2.9188  -1.7816

     occupation numbers 
     1.0000   1.0000   1.0000   1.0000   1.0000   1.0000   1.0000   1.0000
     1.0000   1.0000   1.0000   1.0000   1.0000   1.0000   1.0000   1.0000
     1.0000   1.0000   1.0000   1.0000   1.0000   1.0000

          k =-0.5000 0.0000 0.0000 (  9624 PWs)   bands (ev):

   -18.8402 -18.7467 -17.6065 -17.0214 -15.9138 -13.8094 -12.6096 -11.3623
    -9.7641  -9.0252  -7.9383  -7.7312  -7.6021  -7.4338  -7.2502  -7.1396
    -6.6334  -6.5741  -6.5352  -5.2501  -4.8737  -3.8948

     occupation numbers 
     1.0000   1.0000   1.0000   1.0000   1.0000   1.0000   1.0000   1.0000
     1.0000   1.0000   1.0000   1.0000   1.0000   1.0000   1.0000   1.0000
     1.0000   1.0000   1.0000   1.0000   1.0000   1.0000

     highest occupied level (ev):    -1.7816

!    total energy              =    -118.32831947 Ry
     Harris-Foulkes estimate   =    -118.32831947 Ry
     estimated scf accuracy    <          3.3E-12 Ry

     The total energy is the sum of the following terms:

     one-electron contribution =    -424.91724355 Ry
     hartree contribution      =     220.69449564 Ry
     xc contribution           =     -37.75988786 Ry
     ewald contribution        =     123.65431631 Ry

     convergence has been achieved in   1 iterations

     Forces acting on atoms (Ry/au):

     atom    1 type  2   force =    -0.00000318    0.00002045    0.00000000
     atom    2 type  2   force =     0.00000318    0.00002045    0.00000000
     atom    3 type  1   force =     0.00003305   -0.00003896    0.00000000
     atom    4 type  1   force =    -0.00003305   -0.00003896    0.00000000
     atom    5 type  1   force =     0.00010594    0.00000373    0.00000000
     atom    6 type  1   force =    -0.00010594    0.00000373    0.00000000
     atom    7 type  1   force =    -0.00008181    0.00000000   -0.00000000
     atom    8 type  1   force =     0.00008181   -0.00000000   -0.00000000
     atom    9 type  1   force =     0.00010594   -0.00000373    0.00000000
     atom   10 type  1   force =    -0.00010594   -0.00000373    0.00000000
     atom   11 type  1   force =     0.00003305    0.00003896    0.00000000
     atom   12 type  1   force =    -0.00003305    0.00003896    0.00000000
     atom   13 type  2   force =    -0.00000318   -0.00002045   -0.00000000
     atom   14 type  2   force =     0.00000318   -0.00002045   -0.00000000
     The non-local contrib.  to forces
     atom    1 type  2   force =     0.00000000    0.00000000    0.00000000
     atom    2 type  2   force =     0.00000000    0.00000000    0.00000000
     atom    3 type  1   force =     0.19544261    0.05671944   -0.00000000
     atom    4 type  1   force =    -0.19544261    0.05671944    0.00000000
     atom    5 type  1   force =    -0.03587703   -0.03804755    0.00000000
     atom    6 type  1   force =     0.03587703   -0.03804755   -0.00000000
     atom    7 type  1   force =    -0.06371429    0.00000000    0.00000000
     atom    8 type  1   force =     0.06371429    0.00000000    0.00000000
     atom    9 type  1   force =    -0.03587703    0.03804755    0.00000000
     atom   10 type  1   force =     0.03587703    0.03804755    0.00000000
     atom   11 type  1   force =     0.19544261   -0.05671944   -0.00000000
     atom   12 type  1   force =    -0.19544261   -0.05671944   -0.00000000
     atom   13 type  2   force =     0.00000000    0.00000000    0.00000000
     atom   14 type  2   force =     0.00000000    0.00000000    0.00000000
     The ionic contribution  to forces
     atom    1 type  2   force =     0.85188223   -3.63833298    0.00000000
     atom    2 type  2   force =    -0.85188223   -3.63833298   -0.00000000
     atom    3 type  1   force =     1.65703213   -8.86574822   -0.00000000
     atom    4 type  1   force =    -1.65703213   -8.86574822    0.00000000
     atom    5 type  1   force =     0.08859861   -4.30425321    0.00000000
     atom    6 type  1   force =    -0.08859861   -4.30425321    0.00000000
     atom    7 type  1   force =    -0.14328738   -0.00000000   -0.00000000
     atom    8 type  1   force =     0.14328738    0.00000000   -0.00000000
     atom    9 type  1   force =     0.08859861    4.30425321    0.00000000
     atom   10 type  1   force =    -0.08859861    4.30425321    0.00000000
     atom   11 type  1   force =     1.65703213    8.86574822    0.00000000
     atom   12 type  1   force =    -1.65703213    8.86574822    0.00000000
     atom   13 type  2   force =     0.85188223    3.63833298   -0.00000000
     atom   14 type  2   force =    -0.85188223    3.63833298    0.00000000
     The local contribution  to forces
     atom    1 type  2   force =    -0.85188552    3.63835351    0.00000000
     atom    2 type  2   force =     0.85188552    3.63835351    0.00000000
     atom    3 type  1   force =    -1.85244230    8.80898941    0.00000000
     atom    4 type  1   force =     1.85244230    8.80898941    0.00000000
     atom    5 type  1   force =    -0.05261604    4.34230333    0.00000000
     atom    6 type  1   force =     0.05261604    4.34230333    0.00000000
     atom    7 type  1   force =     0.20692060    0.00000000   -0.00000000
     atom    8 type  1   force =    -0.20692060   -0.00000000    0.00000000
     atom    9 type  1   force =    -0.05261604   -4.34230333   -0.00000000
     atom   10 type  1   force =     0.05261604   -4.34230333   -0.00000000
     atom   11 type  1   force =    -1.85244230   -8.80898941   -0.00000000
     atom   12 type  1   force =     1.85244230   -8.80898941   -0.00000000
     atom   13 type  2   force =    -0.85188552   -3.63835351    0.00000000
     atom   14 type  2   force =     0.85188552   -3.63835351    0.00000000
     The core correction contribution to forces
     atom    1 type  2   force =     0.00000000    0.00000000    0.00000000
     atom    2 type  2   force =     0.00000000    0.00000000    0.00000000
     atom    3 type  1   force =     0.00000000    0.00000000    0.00000000
     atom    4 type  1   force =     0.00000000    0.00000000    0.00000000
     atom    5 type  1   force =     0.00000000    0.00000000    0.00000000
     atom    6 type  1   force =     0.00000000    0.00000000    0.00000000
     atom    7 type  1   force =     0.00000000    0.00000000    0.00000000
     atom    8 type  1   force =     0.00000000    0.00000000    0.00000000
     atom    9 type  1   force =     0.00000000    0.00000000    0.00000000
     atom   10 type  1   force =     0.00000000    0.00000000    0.00000000
     atom   11 type  1   force =     0.00000000    0.00000000    0.00000000
     atom   12 type  1   force =     0.00000000    0.00000000    0.00000000
     atom   13 type  2   force =     0.00000000    0.00000000    0.00000000
     atom   14 type  2   force =     0.00000000    0.00000000    0.00000000
     The Hubbard contrib.    to forces
     atom    1 type  2   force =     0.00000000    0.00000000    0.00000000
     atom    2 type  2   force =     0.00000000    0.00000000    0.00000000
     atom    3 type  1   force =     0.00000000    0.00000000    0.00000000
     atom    4 type  1   force =     0.00000000    0.00000000    0.00000000
     atom    5 type  1   force =     0.00000000    0.00000000    0.00000000
     atom    6 type  1   force =     0.00000000    0.00000000    0.00000000
     atom    7 type  1   force =     0.00000000    0.00000000    0.00000000
     atom    8 type  1   force =     0.00000000    0.00000000    0.00000000
     atom    9 type  1   force =     0.00000000    0.00000000    0.00000000
     atom   10 type  1   force =     0.00000000    0.00000000    0.00000000
     atom   11 type  1   force =     0.00000000    0.00000000    0.00000000
     atom   12 type  1   force =     0.00000000    0.00000000    0.00000000
     atom   13 type  2   force =     0.00000000    0.00000000    0.00000000
     atom   14 type  2   force =     0.00000000    0.00000000    0.00000000
     The SCF correction term to forces
     atom    1 type  2   force =     0.00000011   -0.00000008    0.00000000
     atom    2 type  2   force =    -0.00000011   -0.00000008    0.00000000
     atom    3 type  1   force =     0.00000060    0.00000041   -0.00000000
     atom    4 type  1   force =    -0.00000060    0.00000041   -0.00000000
     atom    5 type  1   force =     0.00000040    0.00000116   -0.00000000
     atom    6 type  1   force =    -0.00000040    0.00000116   -0.00000000
     atom    7 type  1   force =    -0.00000074    0.00000000   -0.00000000
     atom    8 type  1   force =     0.00000074   -0.00000000   -0.00000000
     atom    9 type  1   force =     0.00000040   -0.00000116   -0.00000000
     atom   10 type  1   force =    -0.00000040   -0.00000116   -0.00000000
     atom   11 type  1   force =     0.00000060   -0.00000041   -0.00000000
     atom   12 type  1   force =    -0.00000060   -0.00000041   -0.00000000
     atom   13 type  2   force =     0.00000011    0.00000008   -0.00000000
     atom   14 type  2   force =    -0.00000011    0.00000008   -0.00000000

     Total force =     0.000265     Total SCF correction =     0.000003

     bfgs converged in   4 scf cycles and   1 bfgs steps
     (criteria: energy <  1.0E-06, force <  1.0E-05)

     End of BFGS Geometry Optimization

     Final energy   =    -118.3283194705 Ry
Begin final coordinates

ATOMIC_POSITIONS (alat)
H        0.282110472  -0.805709806   0.000000000
H        0.717889528  -0.805709806  -0.000000000
C        0.158451928  -0.581639820  -0.000000000
C        0.841548072  -0.581639820   0.000000000
C        0.333528729  -0.290153671   0.000000000
C        0.666471271  -0.290153671   0.000000000
C        0.170209785   0.000000000  -0.000000000
C        0.829790215   0.000000000  -0.000000000
C        0.333528729   0.290153671   0.000000000
C        0.666471271   0.290153671   0.000000000
C        0.158451928   0.581639820   0.000000000
C        0.841548072   0.581639820   0.000000000
H        0.282110472   0.805709806  -0.000000000
H        0.717889528   0.805709806   0.000000000
End final coordinates



     Writing output data file gar-w_03-1H.save

     init_run     :      4.10s CPU      4.12s WALL (       1 calls)
     electrons    :     28.93s CPU     29.33s WALL (       4 calls)
     update_pot   :      9.16s CPU      9.19s WALL (       3 calls)
     forces       :      7.24s CPU      7.27s WALL (       4 calls)

     Called by init_run:
     wfcinit      :      0.65s CPU      0.66s WALL (       1 calls)
     potinit      :      1.44s CPU      1.44s WALL (       1 calls)

     Called by electrons:
     c_bands      :     21.63s CPU     21.78s WALL (      20 calls)
     sum_band     :      3.54s CPU      3.56s WALL (      20 calls)
     v_of_rho     :      3.10s CPU      3.29s WALL (      21 calls)
     v_h          :      0.18s CPU      0.18s WALL (      21 calls)
     v_xc         :      2.92s CPU      3.12s WALL (      21 calls)
     mix_rho      :      0.48s CPU      0.48s WALL (      20 calls)

     Called by c_bands:
     init_us_2    :      0.03s CPU      0.03s WALL (      41 calls)
     cegterg      :     18.69s CPU     18.83s WALL (      21 calls)

     Called by sum_band:

     Called by *egterg:
     h_psi        :     16.36s CPU     16.49s WALL (     114 calls)
     g_psi        :      0.05s CPU      0.05s WALL (      92 calls)
     cdiaghg      :      0.30s CPU      0.30s WALL (     106 calls)
     cegterg:over :      1.10s CPU      1.11s WALL (      92 calls)
     cegterg:upda :      0.43s CPU      0.44s WALL (      92 calls)
     cegterg:last :      0.17s CPU      0.17s WALL (      25 calls)

     Called by h_psi:
     h_psi:vloc   :     15.95s CPU     16.06s WALL (     114 calls)
     h_psi:vnl    :      0.37s CPU      0.38s WALL (     114 calls)
     add_vuspsi   :      0.09s CPU      0.10s WALL (     114 calls)

     General routines
     calbec       :      0.28s CPU      0.29s WALL (     118 calls)
     fft          :      2.64s CPU      2.83s WALL (     244 calls)
     fftw         :     17.54s CPU     17.65s WALL (    3486 calls)

     Parallel routines
     fft_scatter  :     14.49s CPU     14.76s WALL (    3730 calls)

     PWSCF        :    50.03s CPU        50.60s WALL


   This run was terminated on:  11:23: 5   6Jul2014            

=------------------------------------------------------------------------------=
   JOB DONE.
=------------------------------------------------------------------------------=
