
     Program PWSCF v.5.0.2 (svn rev. 10600) starts on  6Jul2014 at 12:14:23 

     This program is part of the open-source Quantum ESPRESSO suite
     for quantum simulation of materials; please cite
         "P. Giannozzi et al., J. Phys.:Condens. Matter 21 395502 (2009);
          URL http://www.quantum-espresso.org", 
     in publications or presentations arising from this work. More details at
     http://www.quantum-espresso.org/quote

     Parallel version (MPI), running on     8 processors
     K-points division:     npool     =       2
     R & G space division:  proc/nbgrp/npool/nimage =       4
     Reading input from gar-w_04-1H-pw.in

     Current dimensions of program PWSCF are:
     Max number of different atomic species (ntypx) = 10
     Max number of k-points (npk) =  40000
     Max angular momentum in pseudopotentials (lmaxx) =  3
     Message from routine iosys:
     pot_extrapolation='second_order' not available, using 'atomic'
     Message from routine iosys:
     wfc_extrapolation='second_order' not available, using 'atomic'
               file H.pbe-vbc.UPF: wavefunction(s)  0S renormalized

     Subspace diagonalization in iterative solution of the eigenvalue problem:
     a serial algorithm will be used


     Parallelization info
     --------------------
     sticks:   dense  smooth     PW     G-vecs:    dense   smooth      PW
     Min         551     551    156                20911    20911    3154
     Max         552     552    157                20914    20914    3157
     Sum        2207    2207    625                83651    83651   12619



     bravais-lattice index     =            8
     lattice parameter (alat)  =       8.0518  a.u.
     unit-cell volume          =    2990.3752 (a.u.)^3
     number of atoms/cell      =           16
     number of atomic types    =            2
     number of electrons       =        52.00
     number of Kohn-Sham states=           26
     kinetic-energy cutoff     =      35.0000  Ry
     charge density cutoff     =     140.0000  Ry
     convergence threshold     =      1.0E-09
     mixing beta               =       0.5000
     number of iterations used =            8  plain     mixing
     Exchange-correlation      = SLA  PW   PBE  PBE ( 1  4  3  4 0)
     nstep                     =           50


     celldm(1)=   8.051830  celldm(2)=   3.051038  celldm(3)=   1.877562
     celldm(4)=   0.000000  celldm(5)=   0.000000  celldm(6)=   0.000000

     crystal axes: (cart. coord. in units of alat)
               a(1) = (   1.000000   0.000000   0.000000 )  
               a(2) = (   0.000000   3.051038   0.000000 )  
               a(3) = (   0.000000   0.000000   1.877562 )  

     reciprocal axes: (cart. coord. in units 2 pi/alat)
               b(1) = (  1.000000  0.000000  0.000000 )  
               b(2) = (  0.000000  0.327757  0.000000 )  
               b(3) = (  0.000000  0.000000  0.532606 )  


     PseudoPot. # 1 for C  read from file:
     ../PP_LIBRARY/C.pbe-mt_gipaw.UPF
     MD5 check sum: 5ac2f21f2c440b14befe521540822c15
     Pseudo is Norm-conserving, Zval =  4.0
     Generated by new atomic code, or converted to UPF format
     Using radial grid of 1073 points,  1 beta functions with: 
                l(1) =   0

     PseudoPot. # 2 for H  read from file:
     ../PP_LIBRARY/H.pbe-vbc.UPF
     MD5 check sum: 0ad67d0772b4eb71cad78a7d32695431
     Pseudo is Norm-conserving, Zval =  1.0
     Generated by new atomic code, or converted to UPF format
     Using radial grid of  325 points,  0 beta functions with: 

     atomic species   valence    mass     pseudopotential
        C              4.00    12.01070     C ( 1.00)
        H              1.00     1.00790     H ( 1.00)

      8 Sym. Ops., with inversion, found ( 4 have fractional translation)


                                    s                        frac. trans.

      isym =  1     identity                                     

 cryst.   s( 1) = (     1          0          0      )
                  (     0          1          0      )
                  (     0          0          1      )

 cart.    s( 1) = (  1.0000000  0.0000000  0.0000000 )
                  (  0.0000000  1.0000000  0.0000000 )
                  (  0.0000000  0.0000000  1.0000000 )


      isym =  2     180 deg rotation - cart. axis [0,0,1]        

 cryst.   s( 2) = (    -1          0          0      )
                  (     0         -1          0      )
                  (     0          0          1      )

 cart.    s( 2) = ( -1.0000000  0.0000000  0.0000000 )
                  (  0.0000000 -1.0000000  0.0000000 )
                  (  0.0000000  0.0000000  1.0000000 )


      isym =  3     180 deg rotation - cart. axis [0,1,0]        

 cryst.   s( 3) = (    -1          0          0      )    f =( -0.5000000 )
                  (     0          1          0      )       (  0.0000000 )
                  (     0          0         -1      )       (  0.0000000 )

 cart.    s( 3) = ( -1.0000000  0.0000000  0.0000000 )    f =( -0.5000000 )
                  (  0.0000000  1.0000000  0.0000000 )       (  0.0000000 )
                  (  0.0000000  0.0000000 -1.0000000 )       (  0.0000000 )


      isym =  4     180 deg rotation - cart. axis [1,0,0]        

 cryst.   s( 4) = (     1          0          0      )    f =(  0.5000000 )
                  (     0         -1          0      )       (  0.0000000 )
                  (     0          0         -1      )       (  0.0000000 )

 cart.    s( 4) = (  1.0000000  0.0000000  0.0000000 )    f =(  0.5000000 )
                  (  0.0000000 -1.0000000  0.0000000 )       (  0.0000000 )
                  (  0.0000000  0.0000000 -1.0000000 )       (  0.0000000 )


      isym =  5     inversion                                    

 cryst.   s( 5) = (    -1          0          0      )
                  (     0         -1          0      )
                  (     0          0         -1      )

 cart.    s( 5) = ( -1.0000000  0.0000000  0.0000000 )
                  (  0.0000000 -1.0000000  0.0000000 )
                  (  0.0000000  0.0000000 -1.0000000 )


      isym =  6     inv. 180 deg rotation - cart. axis [0,0,1]   

 cryst.   s( 6) = (     1          0          0      )
                  (     0          1          0      )
                  (     0          0         -1      )

 cart.    s( 6) = (  1.0000000  0.0000000  0.0000000 )
                  (  0.0000000  1.0000000  0.0000000 )
                  (  0.0000000  0.0000000 -1.0000000 )


      isym =  7     inv. 180 deg rotation - cart. axis [0,1,0]   

 cryst.   s( 7) = (     1          0          0      )    f =(  0.5000000 )
                  (     0         -1          0      )       (  0.0000000 )
                  (     0          0          1      )       (  0.0000000 )

 cart.    s( 7) = (  1.0000000  0.0000000  0.0000000 )    f =(  0.5000000 )
                  (  0.0000000 -1.0000000  0.0000000 )       (  0.0000000 )
                  (  0.0000000  0.0000000  1.0000000 )       (  0.0000000 )


      isym =  8     inv. 180 deg rotation - cart. axis [1,0,0]   

 cryst.   s( 8) = (    -1          0          0      )    f =( -0.5000000 )
                  (     0          1          0      )       (  0.0000000 )
                  (     0          0          1      )       (  0.0000000 )

 cart.    s( 8) = ( -1.0000000  0.0000000  0.0000000 )    f =( -0.5000000 )
                  (  0.0000000  1.0000000  0.0000000 )       (  0.0000000 )
                  (  0.0000000  0.0000000  1.0000000 )       (  0.0000000 )


     point group D_2h (mmm) 
     there are  8 classes
     the character table:

       E     C2_z  C2_y  C2_x  i     s_xy  s_xz  s_yz 
A_g    1.00  1.00  1.00  1.00  1.00  1.00  1.00  1.00
B_1g   1.00  1.00 -1.00 -1.00  1.00  1.00 -1.00 -1.00
B_2g   1.00 -1.00  1.00 -1.00  1.00 -1.00  1.00 -1.00
B_3g   1.00 -1.00 -1.00  1.00  1.00 -1.00 -1.00  1.00
A_u    1.00  1.00  1.00  1.00 -1.00 -1.00 -1.00 -1.00
B_1u   1.00  1.00 -1.00 -1.00 -1.00 -1.00  1.00  1.00
B_2u   1.00 -1.00  1.00 -1.00 -1.00  1.00 -1.00  1.00
B_3u   1.00 -1.00 -1.00  1.00 -1.00  1.00  1.00 -1.00

     the symmetry operations in each class:
     E        1
     C2_z     2
     C2_y     3
     C2_x     4
     i        5
     s_xy     6
     s_xz     7
     s_yz     8

   Cartesian axes

     site n.     atom                  positions (alat units)
         1           H   tau(   1) = (   1.0347974  -0.9426684   0.0000000  )
         2           H   tau(   2) = (   0.4652026  -0.9426684  -0.0000000  )
         3           C   tau(   3) = (   0.9121194  -0.7178934   0.0000000  )
         4           C   tau(   4) = (   0.5878806  -0.7178934   0.0000000  )
         5           C   tau(   5) = (   0.0772668  -0.4353796   0.0000000  )
         6           C   tau(   6) = (   0.4227332  -0.4353796   0.0000000  )
         7           C   tau(   7) = (   0.9177862  -0.1467750  -0.0000000  )
         8           C   tau(   8) = (   0.5822138  -0.1467750  -0.0000000  )
         9           C   tau(   9) = (   0.0822138   0.1467750   0.0000000  )
        10           C   tau(  10) = (   0.4177862   0.1467750  -0.0000000  )
        11           C   tau(  11) = (   0.9227332   0.4353796  -0.0000000  )
        12           C   tau(  12) = (   0.5772668   0.4353796   0.0000000  )
        13           C   tau(  13) = (   0.0878806   0.7178934  -0.0000000  )
        14           C   tau(  14) = (   0.4121194   0.7178934   0.0000000  )
        15           H   tau(  15) = (  -0.0347974   0.9426684   0.0000000  )
        16           H   tau(  16) = (   0.5347974   0.9426684  -0.0000000  )

   Crystallographic axes

     site n.     atom                  positions (cryst. coord.)
         1           H   tau(   1) = (  1.0347974 -0.3089664  0.0000000  )
         2           H   tau(   2) = (  0.4652026 -0.3089664  0.0000000  )
         3           C   tau(   3) = (  0.9121194 -0.2352948  0.0000000  )
         4           C   tau(   4) = (  0.5878806 -0.2352948  0.0000000  )
         5           C   tau(   5) = (  0.0772668 -0.1426989  0.0000000  )
         6           C   tau(   6) = (  0.4227332 -0.1426989  0.0000000  )
         7           C   tau(   7) = (  0.9177862 -0.0481066  0.0000000  )
         8           C   tau(   8) = (  0.5822138 -0.0481066  0.0000000  )
         9           C   tau(   9) = (  0.0822138  0.0481066  0.0000000  )
        10           C   tau(  10) = (  0.4177862  0.0481066  0.0000000  )
        11           C   tau(  11) = (  0.9227332  0.1426989  0.0000000  )
        12           C   tau(  12) = (  0.5772668  0.1426989  0.0000000  )
        13           C   tau(  13) = (  0.0878806  0.2352948  0.0000000  )
        14           C   tau(  14) = (  0.4121194  0.2352948  0.0000000  )
        15           H   tau(  15) = ( -0.0347974  0.3089664  0.0000000  )
        16           H   tau(  16) = (  0.5347974  0.3089664  0.0000000  )

     number of k points=     2
                       cart. coord. in units 2pi/alat
        k(    1) = (   0.0000000   0.0000000   0.0000000), wk =   1.0000000
        k(    2) = (  -0.5000000   0.0000000   0.0000000), wk =   1.0000000

                       cryst. coord.
        k(    1) = (   0.0000000   0.0000000   0.0000000), wk =   1.0000000
        k(    2) = (  -0.5000000   0.0000000   0.0000000), wk =   1.0000000

     Dense  grid:    83651 G-vectors     FFT dimensions: (  32,  96,  60)

     Largest allocated arrays     est. size (Mb)     dimensions
        Kohn-Sham Wavefunctions         1.04 Mb     (    2626,   26)
        NL pseudopotentials             0.48 Mb     (    2626,   12)
        Each V/rho on FFT grid          0.70 Mb     (   46080)
        Each G-vector array             0.16 Mb     (   20914)
        G-vector shells                 0.06 Mb     (    7880)
     Largest temporary arrays     est. size (Mb)     dimensions
        Auxiliary wavefunctions         4.17 Mb     (    2626,  104)
        Each subspace H/S matrix        0.17 Mb     (     104,  104)
        Each <psi_i|beta_j> matrix      0.00 Mb     (      12,   26)
        Arrays for rho mixing           5.62 Mb     (   46080,    8)

     Initial potential from superposition of free atoms

     starting charge   45.99993, renormalised to   52.00000

     negative rho (up, down):  9.522E-06 0.000E+00
     Starting wfc are  100 randomized atomic wfcs

     total cpu time spent up to now is        6.3 secs

     per-process dynamical memory:    16.9 Mb

     Self-consistent Calculation

     iteration #  1     ecut=    35.00 Ry     beta=0.50
     Davidson diagonalization with overlap
     ethr =  1.00E-02,  avg # of iterations =  2.0

     negative rho (up, down):  1.586E-06 0.000E+00

     total cpu time spent up to now is        8.1 secs

     total energy              =    -140.84194029 Ry
     Harris-Foulkes estimate   =    -141.37314129 Ry
     estimated scf accuracy    <       1.02456211 Ry

     iteration #  2     ecut=    35.00 Ry     beta=0.50
     Davidson diagonalization with overlap
     ethr =  1.97E-03,  avg # of iterations =  3.5

     negative rho (up, down):  4.933E-07 0.000E+00

     total cpu time spent up to now is       10.5 secs

     total energy              =    -140.94303971 Ry
     Harris-Foulkes estimate   =    -141.21198992 Ry
     estimated scf accuracy    <       0.62854777 Ry

     iteration #  3     ecut=    35.00 Ry     beta=0.50
     Davidson diagonalization with overlap
     ethr =  1.21E-03,  avg # of iterations =  3.5

     total cpu time spent up to now is       12.3 secs

     total energy              =    -141.07944246 Ry
     Harris-Foulkes estimate   =    -141.11018101 Ry
     estimated scf accuracy    <       0.10560151 Ry

     iteration #  4     ecut=    35.00 Ry     beta=0.50
     Davidson diagonalization with overlap
     ethr =  2.03E-04,  avg # of iterations =  3.0

     total cpu time spent up to now is       14.0 secs

     total energy              =    -141.09363441 Ry
     Harris-Foulkes estimate   =    -141.09356528 Ry
     estimated scf accuracy    <       0.00508909 Ry

     iteration #  5     ecut=    35.00 Ry     beta=0.50
     Davidson diagonalization with overlap
     ethr =  9.79E-06,  avg # of iterations =  3.0

     total cpu time spent up to now is       15.5 secs

     total energy              =    -141.09449927 Ry
     Harris-Foulkes estimate   =    -141.09472008 Ry
     estimated scf accuracy    <       0.00077372 Ry

     iteration #  6     ecut=    35.00 Ry     beta=0.50
     Davidson diagonalization with overlap
     ethr =  1.49E-06,  avg # of iterations =  3.5

     total cpu time spent up to now is       16.9 secs

     total energy              =    -141.09456429 Ry
     Harris-Foulkes estimate   =    -141.09458638 Ry
     estimated scf accuracy    <       0.00006727 Ry

     iteration #  7     ecut=    35.00 Ry     beta=0.50
     Davidson diagonalization with overlap
     ethr =  1.29E-07,  avg # of iterations =  3.5

     total cpu time spent up to now is       18.5 secs

     total energy              =    -141.09458158 Ry
     Harris-Foulkes estimate   =    -141.09459383 Ry
     estimated scf accuracy    <       0.00002782 Ry

     iteration #  8     ecut=    35.00 Ry     beta=0.50
     Davidson diagonalization with overlap
     ethr =  5.35E-08,  avg # of iterations =  3.5

     total cpu time spent up to now is       20.1 secs

     total energy              =    -141.09458806 Ry
     Harris-Foulkes estimate   =    -141.09458893 Ry
     estimated scf accuracy    <       0.00000238 Ry

     iteration #  9     ecut=    35.00 Ry     beta=0.50
     Davidson diagonalization with overlap
     ethr =  4.59E-09,  avg # of iterations =  3.5

     total cpu time spent up to now is       21.9 secs

     total energy              =    -141.09458852 Ry
     Harris-Foulkes estimate   =    -141.09458852 Ry
     estimated scf accuracy    <       0.00000001 Ry

     iteration # 10     ecut=    35.00 Ry     beta=0.50
     Davidson diagonalization with overlap
     ethr =  2.43E-11,  avg # of iterations =  4.0

     total cpu time spent up to now is       24.4 secs

     total energy              =    -141.09458854 Ry
     Harris-Foulkes estimate   =    -141.09458854 Ry
     estimated scf accuracy    <          2.0E-09 Ry

     iteration # 11     ecut=    35.00 Ry     beta=0.50
     Davidson diagonalization with overlap
     ethr =  3.80E-12,  avg # of iterations =  3.5

     total cpu time spent up to now is       26.7 secs

     End of self-consistent calculation

          k = 0.0000 0.0000 0.0000 ( 10509 PWs)   bands (ev):

   -20.2309 -19.1509 -17.3647 -15.2827 -15.0133 -14.0697 -13.8398 -13.5292
   -12.3831 -11.3166 -10.5023 -10.3758  -9.6387  -8.5900  -8.2277  -8.0219
    -7.9469  -7.0066  -6.1196  -5.9646  -5.0537  -4.6776  -4.4448  -3.0354
    -2.7306  -1.7388

     occupation numbers 
     1.0000   1.0000   1.0000   1.0000   1.0000   1.0000   1.0000   1.0000
     1.0000   1.0000   1.0000   1.0000   1.0000   1.0000   1.0000   1.0000
     1.0000   1.0000   1.0000   1.0000   1.0000   1.0000   1.0000   1.0000
     1.0000   1.0000

          k =-0.5000 0.0000 0.0000 ( 10416 PWs)   bands (ev):

   -18.7834 -18.7834 -17.6862 -17.6862 -16.0329 -16.0329 -13.3007 -13.3007
   -10.9031 -10.9031  -8.6763  -8.6763  -7.6952  -7.6952  -7.4516  -7.4516
    -7.0401  -7.0401  -6.6191  -6.6191  -6.5336  -6.5336  -5.3640  -5.3640
    -3.8451  -3.8451

     occupation numbers 
     1.0000   1.0000   1.0000   1.0000   1.0000   1.0000   1.0000   1.0000
     1.0000   1.0000   1.0000   1.0000   1.0000   1.0000   1.0000   1.0000
     1.0000   1.0000   1.0000   1.0000   1.0000   1.0000   1.0000   1.0000
     1.0000   1.0000

     highest occupied level (ev):    -1.7388

!    total energy              =    -141.09458854 Ry
     Harris-Foulkes estimate   =    -141.09458854 Ry
     estimated scf accuracy    <          1.9E-10 Ry

     The total energy is the sum of the following terms:

     one-electron contribution =    -520.64845867 Ry
     hartree contribution      =     270.53615677 Ry
     xc contribution           =     -44.87319693 Ry
     ewald contribution        =     153.89091029 Ry

     convergence has been achieved in  11 iterations

     Forces acting on atoms (Ry/au):

     atom    1 type  2   force =    -0.00000525    0.00000958    0.00000000
     atom    2 type  2   force =     0.00000525    0.00000958   -0.00000000
     atom    3 type  1   force =     0.00002365   -0.00001689    0.00000000
     atom    4 type  1   force =    -0.00002365   -0.00001689    0.00000000
     atom    5 type  1   force =    -0.00000308    0.00000602    0.00000000
     atom    6 type  1   force =     0.00000308    0.00000602   -0.00000000
     atom    7 type  1   force =     0.00000805    0.00000156    0.00000000
     atom    8 type  1   force =    -0.00000805    0.00000156   -0.00000000
     atom    9 type  1   force =    -0.00000805   -0.00000156    0.00000000
     atom   10 type  1   force =     0.00000805   -0.00000156   -0.00000000
     atom   11 type  1   force =     0.00000308   -0.00000602    0.00000000
     atom   12 type  1   force =    -0.00000308   -0.00000602   -0.00000000
     atom   13 type  1   force =    -0.00002365    0.00001689    0.00000000
     atom   14 type  1   force =     0.00002365    0.00001689    0.00000000
     atom   15 type  2   force =     0.00000525   -0.00000958    0.00000000
     atom   16 type  2   force =    -0.00000525   -0.00000958   -0.00000000
     The non-local contrib.  to forces
     atom    1 type  2   force =     0.00000000    0.00000000    0.00000000
     atom    2 type  2   force =     0.00000000    0.00000000    0.00000000
     atom    3 type  1   force =     0.06528099   -0.04640196   -0.00000000
     atom    4 type  1   force =    -0.06528099   -0.04640196    0.00000000
     atom    5 type  1   force =     0.13455354    0.03816050   -0.00000000
     atom    6 type  1   force =    -0.13455354    0.03816050   -0.00000000
     atom    7 type  1   force =    -0.01648364    0.06268377    0.00000000
     atom    8 type  1   force =     0.01648364    0.06268377   -0.00000000
     atom    9 type  1   force =     0.01648364   -0.06268377   -0.00000000
     atom   10 type  1   force =    -0.01648364   -0.06268377   -0.00000000
     atom   11 type  1   force =    -0.13455354   -0.03816050    0.00000000
     atom   12 type  1   force =     0.13455354   -0.03816050    0.00000000
     atom   13 type  1   force =    -0.06528099    0.04640196    0.00000000
     atom   14 type  1   force =     0.06528099    0.04640196   -0.00000000
     atom   15 type  2   force =     0.00000000    0.00000000    0.00000000
     atom   16 type  2   force =     0.00000000    0.00000000    0.00000000
     The ionic contribution  to forces
     atom    1 type  2   force =     0.82379884   -3.76623880   -0.00000000
     atom    2 type  2   force =    -0.82379884   -3.76623879   -0.00000000
     atom    3 type  1   force =     1.29467650   -9.95146462   -0.00000000
     atom    4 type  1   force =    -1.29467651   -9.95146461   -0.00000000
     atom    5 type  1   force =     0.69681320   -5.11534998   -0.00000000
     atom    6 type  1   force =    -0.69681319   -5.11535000   -0.00000000
     atom    7 type  1   force =     0.07485371   -1.30841288   -0.00000000
     atom    8 type  1   force =    -0.07485370   -1.30841290   -0.00000000
     atom    9 type  1   force =    -0.07485367    1.30841288   -0.00000000
     atom   10 type  1   force =     0.07485366    1.30841288   -0.00000000
     atom   11 type  1   force =    -0.69681319    5.11535000   -0.00000000
     atom   12 type  1   force =     0.69681320    5.11535000   -0.00000000
     atom   13 type  1   force =    -1.29467651    9.95146460   -0.00000000
     atom   14 type  1   force =     1.29467650    9.95146462   -0.00000000
     atom   15 type  2   force =    -0.82379885    3.76623880   -0.00000000
     atom   16 type  2   force =     0.82379885    3.76623880   -0.00000000
     The local contribution  to forces
     atom    1 type  2   force =    -0.82380483    3.76624850   -0.00000000
     atom    2 type  2   force =     0.82380484    3.76624850   -0.00000000
     atom    3 type  1   force =    -1.35993934    9.99784430   -0.00000000
     atom    4 type  1   force =     1.35993933    9.99784430   -0.00000000
     atom    5 type  1   force =    -0.83137423    5.07719143   -0.00000000
     atom    6 type  1   force =     0.83137424    5.07719143   -0.00000000
     atom    7 type  1   force =    -0.05836295    1.24573118   -0.00000000
     atom    8 type  1   force =     0.05836296    1.24573118   -0.00000000
     atom    9 type  1   force =     0.05836296   -1.24573118   -0.00000000
     atom   10 type  1   force =    -0.05836297   -1.24573118   -0.00000000
     atom   11 type  1   force =     0.83137423   -5.07719143   -0.00000000
     atom   12 type  1   force =    -0.83137422   -5.07719143   -0.00000000
     atom   13 type  1   force =     1.35993933   -9.99784429   -0.00000000
     atom   14 type  1   force =    -1.35993935   -9.99784430   -0.00000000
     atom   15 type  2   force =     0.82380482   -3.76624851   -0.00000000
     atom   16 type  2   force =    -0.82380483   -3.76624850   -0.00000000
     The core correction contribution to forces
     atom    1 type  2   force =     0.00000000    0.00000000    0.00000000
     atom    2 type  2   force =     0.00000000    0.00000000    0.00000000
     atom    3 type  1   force =     0.00000000    0.00000000    0.00000000
     atom    4 type  1   force =     0.00000000    0.00000000    0.00000000
     atom    5 type  1   force =     0.00000000    0.00000000    0.00000000
     atom    6 type  1   force =     0.00000000    0.00000000    0.00000000
     atom    7 type  1   force =     0.00000000    0.00000000    0.00000000
     atom    8 type  1   force =     0.00000000    0.00000000    0.00000000
     atom    9 type  1   force =     0.00000000    0.00000000    0.00000000
     atom   10 type  1   force =     0.00000000    0.00000000    0.00000000
     atom   11 type  1   force =     0.00000000    0.00000000    0.00000000
     atom   12 type  1   force =     0.00000000    0.00000000    0.00000000
     atom   13 type  1   force =     0.00000000    0.00000000    0.00000000
     atom   14 type  1   force =     0.00000000    0.00000000    0.00000000
     atom   15 type  2   force =     0.00000000    0.00000000    0.00000000
     atom   16 type  2   force =     0.00000000    0.00000000    0.00000000
     The Hubbard contrib.    to forces
     atom    1 type  2   force =     0.00000000    0.00000000    0.00000000
     atom    2 type  2   force =     0.00000000    0.00000000    0.00000000
     atom    3 type  1   force =     0.00000000    0.00000000    0.00000000
     atom    4 type  1   force =     0.00000000    0.00000000    0.00000000
     atom    5 type  1   force =     0.00000000    0.00000000    0.00000000
     atom    6 type  1   force =     0.00000000    0.00000000    0.00000000
     atom    7 type  1   force =     0.00000000    0.00000000    0.00000000
     atom    8 type  1   force =     0.00000000    0.00000000    0.00000000
     atom    9 type  1   force =     0.00000000    0.00000000    0.00000000
     atom   10 type  1   force =     0.00000000    0.00000000    0.00000000
     atom   11 type  1   force =     0.00000000    0.00000000    0.00000000
     atom   12 type  1   force =     0.00000000    0.00000000    0.00000000
     atom   13 type  1   force =     0.00000000    0.00000000    0.00000000
     atom   14 type  1   force =     0.00000000    0.00000000    0.00000000
     atom   15 type  2   force =     0.00000000    0.00000000    0.00000000
     atom   16 type  2   force =     0.00000000    0.00000000    0.00000000
     The SCF correction term to forces
     atom    1 type  2   force =     0.00000074   -0.00000012   -0.00000000
     atom    2 type  2   force =    -0.00000074   -0.00000012   -0.00000000
     atom    3 type  1   force =     0.00000550    0.00000538    0.00000000
     atom    4 type  1   force =    -0.00000550    0.00000538    0.00000000
     atom    5 type  1   force =     0.00000442    0.00000410    0.00000000
     atom    6 type  1   force =    -0.00000442    0.00000410    0.00000000
     atom    7 type  1   force =     0.00000097   -0.00000050    0.00000000
     atom    8 type  1   force =    -0.00000097   -0.00000050    0.00000000
     atom    9 type  1   force =    -0.00000097    0.00000050    0.00000000
     atom   10 type  1   force =     0.00000097    0.00000050    0.00000000
     atom   11 type  1   force =    -0.00000442   -0.00000410    0.00000000
     atom   12 type  1   force =     0.00000442   -0.00000410    0.00000000
     atom   13 type  1   force =    -0.00000550   -0.00000538    0.00000000
     atom   14 type  1   force =     0.00000550   -0.00000538    0.00000000
     atom   15 type  2   force =    -0.00000074    0.00000012   -0.00000000
     atom   16 type  2   force =     0.00000074    0.00000012   -0.00000000

     Total force =     0.000066     Total SCF correction =     0.000020
     SCF correction compared to forces is large: reduce conv_thr to get better values

     BFGS Geometry Optimization

     number of scf cycles    =   1
     number of bfgs steps    =   0

     energy   new            =    -141.0945885374 Ry

     new trust radius        =       0.0000290629 bohr
     new conv_thr            =       0.0000000010 Ry


ATOMIC_POSITIONS (alat)
H        1.034796716  -0.942667167   0.000000000
H        0.465203283  -0.942667167  -0.000000000
C        0.912122322  -0.717895534   0.000000000
C        0.587877678  -0.717895534   0.000000000
C        0.077266385  -0.435378895   0.000000000
C        0.422733614  -0.435378895  -0.000000000
C        0.917787197  -0.146774811   0.000000000
C        0.582212802  -0.146774811  -0.000000000
C        0.082212802   0.146774811   0.000000000
C        0.417787198   0.146774811  -0.000000000
C        0.922733614   0.435378895   0.000000000
C        0.577266385   0.435378895  -0.000000000
C        0.087877678   0.717895534   0.000000000
C        0.412122322   0.717895534   0.000000000
H       -0.034796716   0.942667167   0.000000000
H        0.534796716   0.942667167  -0.000000000



     Writing output data file gar-w_04-1H.save
     NEW-OLD atomic charge density approx. for the potential

     total cpu time spent up to now is       33.4 secs

     per-process dynamical memory:    19.3 Mb

     Self-consistent Calculation

     iteration #  1     ecut=    35.00 Ry     beta=0.50
     Davidson diagonalization with overlap
     ethr =  1.00E-06,  avg # of iterations =  1.0

     Threshold (ethr) on eigenvalues was too large:
     Diagonalizing with lowered threshold

     Davidson diagonalization with overlap
     ethr =  7.75E-13,  avg # of iterations =  4.5

     total cpu time spent up to now is       37.1 secs

     total energy              =    -141.09458854 Ry
     Harris-Foulkes estimate   =    -141.09458854 Ry
     estimated scf accuracy    <          3.1E-09 Ry

     iteration #  2     ecut=    35.00 Ry     beta=0.50
     Davidson diagonalization with overlap
     ethr =  5.97E-12,  avg # of iterations =  3.5

     total cpu time spent up to now is       38.5 secs

     total energy              =    -141.09458854 Ry
     Harris-Foulkes estimate   =    -141.09458854 Ry
     estimated scf accuracy    <          1.5E-09 Ry

     iteration #  3     ecut=    35.00 Ry     beta=0.50
     Davidson diagonalization with overlap
     ethr =  2.93E-12,  avg # of iterations =  3.5

     total cpu time spent up to now is       39.7 secs

     End of self-consistent calculation

          k = 0.0000 0.0000 0.0000 ( 10509 PWs)   bands (ev):

   -20.2309 -19.1509 -17.3647 -15.2827 -15.0134 -14.0698 -13.8398 -13.5291
   -12.3831 -11.3166 -10.5023 -10.3759  -9.6388  -8.5900  -8.2277  -8.0221
    -7.9469  -7.0066  -6.1195  -5.9648  -5.0536  -4.6778  -4.4447  -3.0355
    -2.7306  -1.7388

     occupation numbers 
     1.0000   1.0000   1.0000   1.0000   1.0000   1.0000   1.0000   1.0000
     1.0000   1.0000   1.0000   1.0000   1.0000   1.0000   1.0000   1.0000
     1.0000   1.0000   1.0000   1.0000   1.0000   1.0000   1.0000   1.0000
     1.0000   1.0000

          k =-0.5000 0.0000 0.0000 ( 10416 PWs)   bands (ev):

   -18.7834 -18.7834 -17.6862 -17.6862 -16.0329 -16.0329 -13.3007 -13.3007
   -10.9032 -10.9032  -8.6763  -8.6763  -7.6952  -7.6952  -7.4516  -7.4516
    -7.0400  -7.0400  -6.6192  -6.6192  -6.5336  -6.5336  -5.3640  -5.3640
    -3.8451  -3.8451

     occupation numbers 
     1.0000   1.0000   1.0000   1.0000   1.0000   1.0000   1.0000   1.0000
     1.0000   1.0000   1.0000   1.0000   1.0000   1.0000   1.0000   1.0000
     1.0000   1.0000   1.0000   1.0000   1.0000   1.0000   1.0000   1.0000
     1.0000   1.0000

     highest occupied level (ev):    -1.7388

!    total energy              =    -141.09458854 Ry
     Harris-Foulkes estimate   =    -141.09458854 Ry
     estimated scf accuracy    <          2.5E-10 Ry

     The total energy is the sum of the following terms:

     one-electron contribution =    -520.64767633 Ry
     hartree contribution      =     270.53586905 Ry
     xc contribution           =     -44.87319585 Ry
     ewald contribution        =     153.89041459 Ry

     convergence has been achieved in   3 iterations

     Forces acting on atoms (Ry/au):

     atom    1 type  2   force =     0.00000939   -0.00001247    0.00000000
     atom    2 type  2   force =    -0.00000939   -0.00001247   -0.00000000
     atom    3 type  1   force =    -0.00003004    0.00001719   -0.00000000
     atom    4 type  1   force =     0.00003004    0.00001719    0.00000000
     atom    5 type  1   force =     0.00000667   -0.00000309    0.00000000
     atom    6 type  1   force =    -0.00000667   -0.00000309   -0.00000000
     atom    7 type  1   force =    -0.00001149    0.00000195    0.00000000
     atom    8 type  1   force =     0.00001149    0.00000195   -0.00000000
     atom    9 type  1   force =     0.00001149   -0.00000195    0.00000000
     atom   10 type  1   force =    -0.00001149   -0.00000195   -0.00000000
     atom   11 type  1   force =    -0.00000667    0.00000309    0.00000000
     atom   12 type  1   force =     0.00000667    0.00000309   -0.00000000
     atom   13 type  1   force =     0.00003004   -0.00001719   -0.00000000
     atom   14 type  1   force =    -0.00003004   -0.00001719    0.00000000
     atom   15 type  2   force =    -0.00000939    0.00001247    0.00000000
     atom   16 type  2   force =     0.00000939    0.00001247   -0.00000000
     The non-local contrib.  to forces
     atom    1 type  2   force =     0.00000000    0.00000000    0.00000000
     atom    2 type  2   force =     0.00000000    0.00000000    0.00000000
     atom    3 type  1   force =     0.06519325   -0.04634497    0.00000000
     atom    4 type  1   force =    -0.06519325   -0.04634497    0.00000000
     atom    5 type  1   force =     0.13455953    0.03814711    0.00000000
     atom    6 type  1   force =    -0.13455953    0.03814711    0.00000000
     atom    7 type  1   force =    -0.01651379    0.06268261    0.00000000
     atom    8 type  1   force =     0.01651379    0.06268261   -0.00000000
     atom    9 type  1   force =     0.01651379   -0.06268261    0.00000000
     atom   10 type  1   force =    -0.01651379   -0.06268261   -0.00000000
     atom   11 type  1   force =    -0.13455953   -0.03814711    0.00000000
     atom   12 type  1   force =     0.13455953   -0.03814711   -0.00000000
     atom   13 type  1   force =    -0.06519325    0.04634497   -0.00000000
     atom   14 type  1   force =     0.06519325    0.04634497   -0.00000000
     atom   15 type  2   force =     0.00000000    0.00000000    0.00000000
     atom   16 type  2   force =     0.00000000    0.00000000    0.00000000
     The ionic contribution  to forces
     atom    1 type  2   force =     0.82382061   -3.76630260    0.00000000
     atom    2 type  2   force =    -0.82382061   -3.76630259   -0.00000000
     atom    3 type  1   force =     1.29448727   -9.95137706   -0.00000000
     atom    4 type  1   force =    -1.29448728   -9.95137705    0.00000000
     atom    5 type  1   force =     0.69676373   -5.11537409    0.00000000
     atom    6 type  1   force =    -0.69676372   -5.11537411   -0.00000000
     atom    7 type  1   force =     0.07477203   -1.30844050   -0.00000000
     atom    8 type  1   force =    -0.07477202   -1.30844052    0.00000000
     atom    9 type  1   force =    -0.07477199    1.30844050   -0.00000000
     atom   10 type  1   force =     0.07477198    1.30844050    0.00000000
     atom   11 type  1   force =    -0.69676371    5.11537411    0.00000000
     atom   12 type  1   force =     0.69676372    5.11537411   -0.00000000
     atom   13 type  1   force =    -1.29448728    9.95137704   -0.00000000
     atom   14 type  1   force =     1.29448727    9.95137706    0.00000000
     atom   15 type  2   force =    -0.82382061    3.76630260    0.00000000
     atom   16 type  2   force =     0.82382061    3.76630260   -0.00000000
     The local contribution  to forces
     atom    1 type  2   force =    -0.82381096    3.76629067   -0.00000000
     atom    2 type  2   force =     0.82381097    3.76629067   -0.00000000
     atom    3 type  1   force =    -1.35970760    9.99774571   -0.00000000
     atom    4 type  1   force =     1.35970759    9.99774570   -0.00000000
     atom    5 type  1   force =    -0.83131778    5.07723823   -0.00000000
     atom    6 type  1   force =     0.83131779    5.07723823   -0.00000000
     atom    7 type  1   force =    -0.05826986    1.24576631   -0.00000000
     atom    8 type  1   force =     0.05826987    1.24576630   -0.00000000
     atom    9 type  1   force =     0.05826987   -1.24576631   -0.00000000
     atom   10 type  1   force =    -0.05826988   -1.24576631   -0.00000000
     atom   11 type  1   force =     0.83131778   -5.07723823   -0.00000000
     atom   12 type  1   force =    -0.83131777   -5.07723823   -0.00000000
     atom   13 type  1   force =     1.35970759   -9.99774570   -0.00000000
     atom   14 type  1   force =    -1.35970760   -9.99774570   -0.00000000
     atom   15 type  2   force =     0.82381096   -3.76629067   -0.00000000
     atom   16 type  2   force =    -0.82381097   -3.76629067   -0.00000000
     The core correction contribution to forces
     atom    1 type  2   force =     0.00000000    0.00000000    0.00000000
     atom    2 type  2   force =     0.00000000    0.00000000    0.00000000
     atom    3 type  1   force =     0.00000000    0.00000000    0.00000000
     atom    4 type  1   force =     0.00000000    0.00000000    0.00000000
     atom    5 type  1   force =     0.00000000    0.00000000    0.00000000
     atom    6 type  1   force =     0.00000000    0.00000000    0.00000000
     atom    7 type  1   force =     0.00000000    0.00000000    0.00000000
     atom    8 type  1   force =     0.00000000    0.00000000    0.00000000
     atom    9 type  1   force =     0.00000000    0.00000000    0.00000000
     atom   10 type  1   force =     0.00000000    0.00000000    0.00000000
     atom   11 type  1   force =     0.00000000    0.00000000    0.00000000
     atom   12 type  1   force =     0.00000000    0.00000000    0.00000000
     atom   13 type  1   force =     0.00000000    0.00000000    0.00000000
     atom   14 type  1   force =     0.00000000    0.00000000    0.00000000
     atom   15 type  2   force =     0.00000000    0.00000000    0.00000000
     atom   16 type  2   force =     0.00000000    0.00000000    0.00000000
     The Hubbard contrib.    to forces
     atom    1 type  2   force =     0.00000000    0.00000000    0.00000000
     atom    2 type  2   force =     0.00000000    0.00000000    0.00000000
     atom    3 type  1   force =     0.00000000    0.00000000    0.00000000
     atom    4 type  1   force =     0.00000000    0.00000000    0.00000000
     atom    5 type  1   force =     0.00000000    0.00000000    0.00000000
     atom    6 type  1   force =     0.00000000    0.00000000    0.00000000
     atom    7 type  1   force =     0.00000000    0.00000000    0.00000000
     atom    8 type  1   force =     0.00000000    0.00000000    0.00000000
     atom    9 type  1   force =     0.00000000    0.00000000    0.00000000
     atom   10 type  1   force =     0.00000000    0.00000000    0.00000000
     atom   11 type  1   force =     0.00000000    0.00000000    0.00000000
     atom   12 type  1   force =     0.00000000    0.00000000    0.00000000
     atom   13 type  1   force =     0.00000000    0.00000000    0.00000000
     atom   14 type  1   force =     0.00000000    0.00000000    0.00000000
     atom   15 type  2   force =     0.00000000    0.00000000    0.00000000
     atom   16 type  2   force =     0.00000000    0.00000000    0.00000000
     The SCF correction term to forces
     atom    1 type  2   force =    -0.00000025   -0.00000055   -0.00000000
     atom    2 type  2   force =     0.00000025   -0.00000055   -0.00000000
     atom    3 type  1   force =    -0.00000298   -0.00000649    0.00000000
     atom    4 type  1   force =     0.00000298   -0.00000649    0.00000000
     atom    5 type  1   force =     0.00000120   -0.00001433    0.00000000
     atom    6 type  1   force =    -0.00000120   -0.00001433    0.00000000
     atom    7 type  1   force =     0.00000017   -0.00000646    0.00000000
     atom    8 type  1   force =    -0.00000017   -0.00000646    0.00000000
     atom    9 type  1   force =    -0.00000017    0.00000646    0.00000000
     atom   10 type  1   force =     0.00000017    0.00000646    0.00000000
     atom   11 type  1   force =    -0.00000120    0.00001433    0.00000000
     atom   12 type  1   force =     0.00000120    0.00001433    0.00000000
     atom   13 type  1   force =     0.00000298    0.00000649    0.00000000
     atom   14 type  1   force =    -0.00000298    0.00000649    0.00000000
     atom   15 type  2   force =     0.00000025    0.00000055   -0.00000000
     atom   16 type  2   force =    -0.00000025    0.00000055   -0.00000000

     Total force =     0.000081     Total SCF correction =     0.000035
     SCF correction compared to forces is large: reduce conv_thr to get better values

     number of scf cycles    =   2
     number of bfgs steps    =   1

     energy   old            =    -141.0945885374 Ry
     energy   new            =    -141.0945885369 Ry

     CASE: energy  _new > energy  _old

     new trust radius        =       0.0000130700 bohr

     trust_radius < trust_radius_min

     resetting bfgs history

     new conv_thr            =       0.0000000010 Ry


ATOMIC_POSITIONS (alat)
H        1.034796716  -0.942667167   0.000000000
H        0.465203283  -0.942667167  -0.000000000
C        0.912122322  -0.717895534   0.000000000
C        0.587877678  -0.717895534   0.000000000
C        0.077266385  -0.435378895   0.000000000
C        0.422733614  -0.435378895  -0.000000000
C        0.917787197  -0.146774811   0.000000000
C        0.582212802  -0.146774811  -0.000000000
C        0.082212802   0.146774811   0.000000000
C        0.417787198   0.146774811  -0.000000000
C        0.922733614   0.435378895   0.000000000
C        0.577266385   0.435378895  -0.000000000
C        0.087877678   0.717895534   0.000000000
C        0.412122322   0.717895534   0.000000000
H       -0.034796716   0.942667167   0.000000000
H        0.534796716   0.942667167  -0.000000000



     Writing output data file gar-w_04-1H.save
     NEW-OLD atomic charge density approx. for the potential

     total cpu time spent up to now is       46.7 secs

     per-process dynamical memory:    19.3 Mb

     Self-consistent Calculation

     iteration #  1     ecut=    35.00 Ry     beta=0.50
     Davidson diagonalization with overlap
     ethr =  1.00E-06,  avg # of iterations =  1.0

     Threshold (ethr) on eigenvalues was too large:
     Diagonalizing with lowered threshold

     Davidson diagonalization with overlap
     ethr =  1.25E-12,  avg # of iterations =  4.5

     total cpu time spent up to now is       50.0 secs

     total energy              =    -141.09458854 Ry
     Harris-Foulkes estimate   =    -141.09458854 Ry
     estimated scf accuracy    <          2.8E-09 Ry

     iteration #  2     ecut=    35.00 Ry     beta=0.50
     Davidson diagonalization with overlap
     ethr =  5.36E-12,  avg # of iterations =  4.0

     total cpu time spent up to now is       51.6 secs

     total energy              =    -141.09458854 Ry
     Harris-Foulkes estimate   =    -141.09458854 Ry
     estimated scf accuracy    <          5.2E-09 Ry

     iteration #  3     ecut=    35.00 Ry     beta=0.50
     Davidson diagonalization with overlap
     ethr =  5.36E-12,  avg # of iterations =  3.5

     total cpu time spent up to now is       53.3 secs

     End of self-consistent calculation

          k = 0.0000 0.0000 0.0000 ( 10509 PWs)   bands (ev):

   -20.2309 -19.1509 -17.3647 -15.2827 -15.0133 -14.0697 -13.8398 -13.5291
   -12.3831 -11.3166 -10.5023 -10.3759  -9.6388  -8.5900  -8.2277  -8.0221
    -7.9469  -7.0066  -6.1195  -5.9648  -5.0536  -4.6778  -4.4447  -3.0355
    -2.7306  -1.7388

     occupation numbers 
     1.0000   1.0000   1.0000   1.0000   1.0000   1.0000   1.0000   1.0000
     1.0000   1.0000   1.0000   1.0000   1.0000   1.0000   1.0000   1.0000
     1.0000   1.0000   1.0000   1.0000   1.0000   1.0000   1.0000   1.0000
     1.0000   1.0000

          k =-0.5000 0.0000 0.0000 ( 10416 PWs)   bands (ev):

   -18.7834 -18.7834 -17.6862 -17.6862 -16.0329 -16.0329 -13.3007 -13.3007
   -10.9032 -10.9032  -8.6763  -8.6763  -7.6952  -7.6952  -7.4516  -7.4516
    -7.0400  -7.0400  -6.6192  -6.6192  -6.5336  -6.5336  -5.3640  -5.3640
    -3.8451  -3.8451

     occupation numbers 
     1.0000   1.0000   1.0000   1.0000   1.0000   1.0000   1.0000   1.0000
     1.0000   1.0000   1.0000   1.0000   1.0000   1.0000   1.0000   1.0000
     1.0000   1.0000   1.0000   1.0000   1.0000   1.0000   1.0000   1.0000
     1.0000   1.0000

     highest occupied level (ev):    -1.7388

!    total energy              =    -141.09458854 Ry
     Harris-Foulkes estimate   =    -141.09458854 Ry
     estimated scf accuracy    <          1.2E-12 Ry

     The total energy is the sum of the following terms:

     one-electron contribution =    -520.64754810 Ry
     hartree contribution      =     270.53573769 Ry
     xc contribution           =     -44.87319272 Ry
     ewald contribution        =     153.89041459 Ry

     convergence has been achieved in   3 iterations

     Forces acting on atoms (Ry/au):

     atom    1 type  2   force =     0.00000937   -0.00001268   -0.00000000
     atom    2 type  2   force =    -0.00000937   -0.00001268   -0.00000000
     atom    3 type  1   force =    -0.00003049    0.00001573   -0.00000000
     atom    4 type  1   force =     0.00003049    0.00001573   -0.00000000
     atom    5 type  1   force =     0.00000716   -0.00000625    0.00000000
     atom    6 type  1   force =    -0.00000716   -0.00000625    0.00000000
     atom    7 type  1   force =    -0.00001162    0.00000081    0.00000000
     atom    8 type  1   force =     0.00001162    0.00000081    0.00000000
     atom    9 type  1   force =     0.00001162   -0.00000081    0.00000000
     atom   10 type  1   force =    -0.00001162   -0.00000081    0.00000000
     atom   11 type  1   force =    -0.00000716    0.00000625    0.00000000
     atom   12 type  1   force =     0.00000716    0.00000625    0.00000000
     atom   13 type  1   force =     0.00003049   -0.00001573   -0.00000000
     atom   14 type  1   force =    -0.00003049   -0.00001573   -0.00000000
     atom   15 type  2   force =    -0.00000937    0.00001268   -0.00000000
     atom   16 type  2   force =     0.00000937    0.00001268   -0.00000000
     The non-local contrib.  to forces
     atom    1 type  2   force =     0.00000000    0.00000000    0.00000000
     atom    2 type  2   force =     0.00000000    0.00000000    0.00000000
     atom    3 type  1   force =     0.06519655   -0.04635132    0.00000000
     atom    4 type  1   force =    -0.06519655   -0.04635132    0.00000000
     atom    5 type  1   force =     0.13455851    0.03814551   -0.00000000
     atom    6 type  1   force =    -0.13455851    0.03814551   -0.00000000
     atom    7 type  1   force =    -0.01651196    0.06268037    0.00000000
     atom    8 type  1   force =     0.01651196    0.06268037   -0.00000000
     atom    9 type  1   force =     0.01651196   -0.06268037    0.00000000
     atom   10 type  1   force =    -0.01651196   -0.06268037   -0.00000000
     atom   11 type  1   force =    -0.13455851   -0.03814551   -0.00000000
     atom   12 type  1   force =     0.13455851   -0.03814551   -0.00000000
     atom   13 type  1   force =    -0.06519655    0.04635132    0.00000000
     atom   14 type  1   force =     0.06519655    0.04635132    0.00000000
     atom   15 type  2   force =     0.00000000    0.00000000    0.00000000
     atom   16 type  2   force =     0.00000000    0.00000000    0.00000000
     The ionic contribution  to forces
     atom    1 type  2   force =     0.82382061   -3.76630260    0.00000000
     atom    2 type  2   force =    -0.82382061   -3.76630259   -0.00000000
     atom    3 type  1   force =     1.29448727   -9.95137706   -0.00000000
     atom    4 type  1   force =    -1.29448728   -9.95137705    0.00000000
     atom    5 type  1   force =     0.69676373   -5.11537409    0.00000000
     atom    6 type  1   force =    -0.69676372   -5.11537411   -0.00000000
     atom    7 type  1   force =     0.07477203   -1.30844050   -0.00000000
     atom    8 type  1   force =    -0.07477202   -1.30844052    0.00000000
     atom    9 type  1   force =    -0.07477199    1.30844050   -0.00000000
     atom   10 type  1   force =     0.07477198    1.30844050    0.00000000
     atom   11 type  1   force =    -0.69676371    5.11537411    0.00000000
     atom   12 type  1   force =     0.69676372    5.11537411   -0.00000000
     atom   13 type  1   force =    -1.29448728    9.95137704   -0.00000000
     atom   14 type  1   force =     1.29448727    9.95137706    0.00000000
     atom   15 type  2   force =    -0.82382061    3.76630260    0.00000000
     atom   16 type  2   force =     0.82382061    3.76630260   -0.00000000
     The local contribution  to forces
     atom    1 type  2   force =    -0.82381113    3.76628981   -0.00000000
     atom    2 type  2   force =     0.82381113    3.76628981   -0.00000000
     atom    3 type  1   force =    -1.35971411    9.99774462   -0.00000000
     atom    4 type  1   force =     1.35971410    9.99774461   -0.00000000
     atom    5 type  1   force =    -0.83131465    5.07722256   -0.00000000
     atom    6 type  1   force =     0.83131466    5.07722256   -0.00000000
     atom    7 type  1   force =    -0.05827164    1.24576103   -0.00000000
     atom    8 type  1   force =     0.05827165    1.24576103   -0.00000000
     atom    9 type  1   force =     0.05827165   -1.24576103   -0.00000000
     atom   10 type  1   force =    -0.05827166   -1.24576103   -0.00000000
     atom   11 type  1   force =     0.83131465   -5.07722256   -0.00000000
     atom   12 type  1   force =    -0.83131464   -5.07722256   -0.00000000
     atom   13 type  1   force =     1.35971410   -9.99774461   -0.00000000
     atom   14 type  1   force =    -1.35971411   -9.99774461   -0.00000000
     atom   15 type  2   force =     0.82381112   -3.76628981   -0.00000000
     atom   16 type  2   force =    -0.82381113   -3.76628981   -0.00000000
     The core correction contribution to forces
     atom    1 type  2   force =     0.00000000    0.00000000    0.00000000
     atom    2 type  2   force =     0.00000000    0.00000000    0.00000000
     atom    3 type  1   force =     0.00000000    0.00000000    0.00000000
     atom    4 type  1   force =     0.00000000    0.00000000    0.00000000
     atom    5 type  1   force =     0.00000000    0.00000000    0.00000000
     atom    6 type  1   force =     0.00000000    0.00000000    0.00000000
     atom    7 type  1   force =     0.00000000    0.00000000    0.00000000
     atom    8 type  1   force =     0.00000000    0.00000000    0.00000000
     atom    9 type  1   force =     0.00000000    0.00000000    0.00000000
     atom   10 type  1   force =     0.00000000    0.00000000    0.00000000
     atom   11 type  1   force =     0.00000000    0.00000000    0.00000000
     atom   12 type  1   force =     0.00000000    0.00000000    0.00000000
     atom   13 type  1   force =     0.00000000    0.00000000    0.00000000
     atom   14 type  1   force =     0.00000000    0.00000000    0.00000000
     atom   15 type  2   force =     0.00000000    0.00000000    0.00000000
     atom   16 type  2   force =     0.00000000    0.00000000    0.00000000
     The Hubbard contrib.    to forces
     atom    1 type  2   force =     0.00000000    0.00000000    0.00000000
     atom    2 type  2   force =     0.00000000    0.00000000    0.00000000
     atom    3 type  1   force =     0.00000000    0.00000000    0.00000000
     atom    4 type  1   force =     0.00000000    0.00000000    0.00000000
     atom    5 type  1   force =     0.00000000    0.00000000    0.00000000
     atom    6 type  1   force =     0.00000000    0.00000000    0.00000000
     atom    7 type  1   force =     0.00000000    0.00000000    0.00000000
     atom    8 type  1   force =     0.00000000    0.00000000    0.00000000
     atom    9 type  1   force =     0.00000000    0.00000000    0.00000000
     atom   10 type  1   force =     0.00000000    0.00000000    0.00000000
     atom   11 type  1   force =     0.00000000    0.00000000    0.00000000
     atom   12 type  1   force =     0.00000000    0.00000000    0.00000000
     atom   13 type  1   force =     0.00000000    0.00000000    0.00000000
     atom   14 type  1   force =     0.00000000    0.00000000    0.00000000
     atom   15 type  2   force =     0.00000000    0.00000000    0.00000000
     atom   16 type  2   force =     0.00000000    0.00000000    0.00000000
     The SCF correction term to forces
     atom    1 type  2   force =    -0.00000011    0.00000010   -0.00000000
     atom    2 type  2   force =     0.00000011    0.00000010   -0.00000000
     atom    3 type  1   force =    -0.00000021   -0.00000051    0.00000000
     atom    4 type  1   force =     0.00000021   -0.00000051    0.00000000
     atom    5 type  1   force =    -0.00000042   -0.00000022    0.00000000
     atom    6 type  1   force =     0.00000042   -0.00000022    0.00000000
     atom    7 type  1   force =    -0.00000001   -0.00000008    0.00000000
     atom    8 type  1   force =     0.00000001   -0.00000008    0.00000000
     atom    9 type  1   force =     0.00000001    0.00000008    0.00000000
     atom   10 type  1   force =    -0.00000001    0.00000008   -0.00000000
     atom   11 type  1   force =     0.00000042    0.00000022   -0.00000000
     atom   12 type  1   force =    -0.00000042    0.00000022   -0.00000000
     atom   13 type  1   force =     0.00000021    0.00000051   -0.00000000
     atom   14 type  1   force =    -0.00000021    0.00000051   -0.00000000
     atom   15 type  2   force =     0.00000011   -0.00000010   -0.00000000
     atom   16 type  2   force =    -0.00000011   -0.00000010   -0.00000000

     Total force =     0.000081     Total SCF correction =     0.000001

     number of scf cycles    =   3
     number of bfgs steps    =   1

     energy   old            =    -141.0945885374 Ry
     energy   new            =    -141.0945885371 Ry

     CASE: energy  _new > energy  _old

     new trust radius        =       0.0000134924 bohr

     trust_radius < trust_radius_min

     resetting bfgs history

     Message from routine bfgs:
     history already reset at previous step: stopping
     new conv_thr            =       0.0000000010 Ry


ATOMIC_POSITIONS (alat)
H        1.034796716  -0.942667167   0.000000000
H        0.465203283  -0.942667167  -0.000000000
C        0.912122322  -0.717895534   0.000000000
C        0.587877678  -0.717895534   0.000000000
C        0.077266385  -0.435378895   0.000000000
C        0.422733614  -0.435378895  -0.000000000
C        0.917787197  -0.146774811   0.000000000
C        0.582212802  -0.146774811  -0.000000000
C        0.082212802   0.146774811   0.000000000
C        0.417787198   0.146774811  -0.000000000
C        0.922733614   0.435378895   0.000000000
C        0.577266385   0.435378895  -0.000000000
C        0.087877678   0.717895534   0.000000000
C        0.412122322   0.717895534   0.000000000
H       -0.034796716   0.942667167   0.000000000
H        0.534796716   0.942667167  -0.000000000



     Writing output data file gar-w_04-1H.save
     NEW-OLD atomic charge density approx. for the potential

     total cpu time spent up to now is       60.0 secs

     per-process dynamical memory:    19.3 Mb

     Self-consistent Calculation

     iteration #  1     ecut=    35.00 Ry     beta=0.50
     Davidson diagonalization with overlap
     ethr =  1.00E-06,  avg # of iterations =  1.0

     Threshold (ethr) on eigenvalues was too large:
     Diagonalizing with lowered threshold

     Davidson diagonalization with overlap
     ethr =  2.09E-15,  avg # of iterations =  5.5

     total cpu time spent up to now is       64.1 secs

     End of self-consistent calculation

          k = 0.0000 0.0000 0.0000 ( 10509 PWs)   bands (ev):

   -20.2309 -19.1509 -17.3647 -15.2827 -15.0133 -14.0697 -13.8398 -13.5291
   -12.3831 -11.3166 -10.5023 -10.3759  -9.6388  -8.5900  -8.2277  -8.0221
    -7.9469  -7.0066  -6.1195  -5.9648  -5.0536  -4.6778  -4.4447  -3.0355
    -2.7306  -1.7388

     occupation numbers 
     1.0000   1.0000   1.0000   1.0000   1.0000   1.0000   1.0000   1.0000
     1.0000   1.0000   1.0000   1.0000   1.0000   1.0000   1.0000   1.0000
     1.0000   1.0000   1.0000   1.0000   1.0000   1.0000   1.0000   1.0000
     1.0000   1.0000

          k =-0.5000 0.0000 0.0000 ( 10416 PWs)   bands (ev):

   -18.7834 -18.7834 -17.6862 -17.6862 -16.0329 -16.0329 -13.3007 -13.3007
   -10.9032 -10.9032  -8.6763  -8.6763  -7.6952  -7.6952  -7.4516  -7.4516
    -7.0400  -7.0400  -6.6192  -6.6192  -6.5336  -6.5336  -5.3640  -5.3640
    -3.8451  -3.8451

     occupation numbers 
     1.0000   1.0000   1.0000   1.0000   1.0000   1.0000   1.0000   1.0000
     1.0000   1.0000   1.0000   1.0000   1.0000   1.0000   1.0000   1.0000
     1.0000   1.0000   1.0000   1.0000   1.0000   1.0000   1.0000   1.0000
     1.0000   1.0000

     highest occupied level (ev):    -1.7388

!    total energy              =    -141.09458854 Ry
     Harris-Foulkes estimate   =    -141.09458854 Ry
     estimated scf accuracy    <          8.0E-12 Ry

     The total energy is the sum of the following terms:

     one-electron contribution =    -520.64753035 Ry
     hartree contribution      =     270.53572042 Ry
     xc contribution           =     -44.87319320 Ry
     ewald contribution        =     153.89041459 Ry

     convergence has been achieved in   1 iterations

     Forces acting on atoms (Ry/au):

     atom    1 type  2   force =     0.00000917   -0.00001234    0.00000000
     atom    2 type  2   force =    -0.00000917   -0.00001234    0.00000000
     atom    3 type  1   force =    -0.00003097    0.00001554    0.00000000
     atom    4 type  1   force =     0.00003097    0.00001554   -0.00000000
     atom    5 type  1   force =     0.00000677   -0.00000644    0.00000000
     atom    6 type  1   force =    -0.00000677   -0.00000644    0.00000000
     atom    7 type  1   force =    -0.00001149    0.00000083    0.00000000
     atom    8 type  1   force =     0.00001149    0.00000083    0.00000000
     atom    9 type  1   force =     0.00001149   -0.00000083    0.00000000
     atom   10 type  1   force =    -0.00001149   -0.00000083    0.00000000
     atom   11 type  1   force =    -0.00000677    0.00000644    0.00000000
     atom   12 type  1   force =     0.00000677    0.00000644    0.00000000
     atom   13 type  1   force =     0.00003097   -0.00001554    0.00000000
     atom   14 type  1   force =    -0.00003097   -0.00001554   -0.00000000
     atom   15 type  2   force =    -0.00000917    0.00001234    0.00000000
     atom   16 type  2   force =     0.00000917    0.00001234    0.00000000
     The non-local contrib.  to forces
     atom    1 type  2   force =     0.00000000    0.00000000    0.00000000
     atom    2 type  2   force =     0.00000000    0.00000000    0.00000000
     atom    3 type  1   force =     0.06519548   -0.04635072    0.00000000
     atom    4 type  1   force =    -0.06519548   -0.04635072    0.00000000
     atom    5 type  1   force =     0.13455853    0.03814340   -0.00000000
     atom    6 type  1   force =    -0.13455853    0.03814340    0.00000000
     atom    7 type  1   force =    -0.01651155    0.06268046    0.00000000
     atom    8 type  1   force =     0.01651155    0.06268046    0.00000000
     atom    9 type  1   force =     0.01651155   -0.06268046    0.00000000
     atom   10 type  1   force =    -0.01651155   -0.06268046   -0.00000000
     atom   11 type  1   force =    -0.13455853   -0.03814340   -0.00000000
     atom   12 type  1   force =     0.13455853   -0.03814340    0.00000000
     atom   13 type  1   force =    -0.06519548    0.04635072    0.00000000
     atom   14 type  1   force =     0.06519548    0.04635072    0.00000000
     atom   15 type  2   force =     0.00000000    0.00000000    0.00000000
     atom   16 type  2   force =     0.00000000    0.00000000    0.00000000
     The ionic contribution  to forces
     atom    1 type  2   force =     0.82382061   -3.76630260    0.00000000
     atom    2 type  2   force =    -0.82382061   -3.76630259   -0.00000000
     atom    3 type  1   force =     1.29448727   -9.95137706   -0.00000000
     atom    4 type  1   force =    -1.29448728   -9.95137705    0.00000000
     atom    5 type  1   force =     0.69676373   -5.11537409    0.00000000
     atom    6 type  1   force =    -0.69676372   -5.11537411   -0.00000000
     atom    7 type  1   force =     0.07477203   -1.30844050   -0.00000000
     atom    8 type  1   force =    -0.07477202   -1.30844052    0.00000000
     atom    9 type  1   force =    -0.07477199    1.30844050   -0.00000000
     atom   10 type  1   force =     0.07477198    1.30844050    0.00000000
     atom   11 type  1   force =    -0.69676371    5.11537411    0.00000000
     atom   12 type  1   force =     0.69676372    5.11537411   -0.00000000
     atom   13 type  1   force =    -1.29448728    9.95137704   -0.00000000
     atom   14 type  1   force =     1.29448727    9.95137706    0.00000000
     atom   15 type  2   force =    -0.82382061    3.76630260    0.00000000
     atom   16 type  2   force =     0.82382061    3.76630260   -0.00000000
     The local contribution  to forces
     atom    1 type  2   force =    -0.82381169    3.76629040   -0.00000000
     atom    2 type  2   force =     0.82381170    3.76629040   -0.00000000
     atom    3 type  1   force =    -1.35971482    9.99774184   -0.00000000
     atom    4 type  1   force =     1.35971480    9.99774184   -0.00000000
     atom    5 type  1   force =    -0.83131636    5.07722233   -0.00000000
     atom    6 type  1   force =     0.83131637    5.07722233   -0.00000000
     atom    7 type  1   force =    -0.05827214    1.24576015   -0.00000000
     atom    8 type  1   force =     0.05827215    1.24576015   -0.00000000
     atom    9 type  1   force =     0.05827214   -1.24576015   -0.00000000
     atom   10 type  1   force =    -0.05827216   -1.24576015   -0.00000000
     atom   11 type  1   force =     0.83131636   -5.07722233   -0.00000000
     atom   12 type  1   force =    -0.83131635   -5.07722233   -0.00000000
     atom   13 type  1   force =     1.35971481   -9.99774183   -0.00000000
     atom   14 type  1   force =    -1.35971482   -9.99774184   -0.00000000
     atom   15 type  2   force =     0.82381168   -3.76629041   -0.00000000
     atom   16 type  2   force =    -0.82381169   -3.76629040   -0.00000000
     The core correction contribution to forces
     atom    1 type  2   force =     0.00000000    0.00000000    0.00000000
     atom    2 type  2   force =     0.00000000    0.00000000    0.00000000
     atom    3 type  1   force =     0.00000000    0.00000000    0.00000000
     atom    4 type  1   force =     0.00000000    0.00000000    0.00000000
     atom    5 type  1   force =     0.00000000    0.00000000    0.00000000
     atom    6 type  1   force =     0.00000000    0.00000000    0.00000000
     atom    7 type  1   force =     0.00000000    0.00000000    0.00000000
     atom    8 type  1   force =     0.00000000    0.00000000    0.00000000
     atom    9 type  1   force =     0.00000000    0.00000000    0.00000000
     atom   10 type  1   force =     0.00000000    0.00000000    0.00000000
     atom   11 type  1   force =     0.00000000    0.00000000    0.00000000
     atom   12 type  1   force =     0.00000000    0.00000000    0.00000000
     atom   13 type  1   force =     0.00000000    0.00000000    0.00000000
     atom   14 type  1   force =     0.00000000    0.00000000    0.00000000
     atom   15 type  2   force =     0.00000000    0.00000000    0.00000000
     atom   16 type  2   force =     0.00000000    0.00000000    0.00000000
     The Hubbard contrib.    to forces
     atom    1 type  2   force =     0.00000000    0.00000000    0.00000000
     atom    2 type  2   force =     0.00000000    0.00000000    0.00000000
     atom    3 type  1   force =     0.00000000    0.00000000    0.00000000
     atom    4 type  1   force =     0.00000000    0.00000000    0.00000000
     atom    5 type  1   force =     0.00000000    0.00000000    0.00000000
     atom    6 type  1   force =     0.00000000    0.00000000    0.00000000
     atom    7 type  1   force =     0.00000000    0.00000000    0.00000000
     atom    8 type  1   force =     0.00000000    0.00000000    0.00000000
     atom    9 type  1   force =     0.00000000    0.00000000    0.00000000
     atom   10 type  1   force =     0.00000000    0.00000000    0.00000000
     atom   11 type  1   force =     0.00000000    0.00000000    0.00000000
     atom   12 type  1   force =     0.00000000    0.00000000    0.00000000
     atom   13 type  1   force =     0.00000000    0.00000000    0.00000000
     atom   14 type  1   force =     0.00000000    0.00000000    0.00000000
     atom   15 type  2   force =     0.00000000    0.00000000    0.00000000
     atom   16 type  2   force =     0.00000000    0.00000000    0.00000000
     The SCF correction term to forces
     atom    1 type  2   force =     0.00000025   -0.00000015    0.00000000
     atom    2 type  2   force =    -0.00000025   -0.00000015    0.00000000
     atom    3 type  1   force =     0.00000108    0.00000147    0.00000000
     atom    4 type  1   force =    -0.00000108    0.00000147    0.00000000
     atom    5 type  1   force =     0.00000089    0.00000194    0.00000000
     atom    6 type  1   force =    -0.00000089    0.00000194    0.00000000
     atom    7 type  1   force =     0.00000020    0.00000073    0.00000000
     atom    8 type  1   force =    -0.00000020    0.00000073    0.00000000
     atom    9 type  1   force =    -0.00000020   -0.00000073    0.00000000
     atom   10 type  1   force =     0.00000020   -0.00000073    0.00000000
     atom   11 type  1   force =    -0.00000089   -0.00000194    0.00000000
     atom   12 type  1   force =     0.00000089   -0.00000194    0.00000000
     atom   13 type  1   force =    -0.00000108   -0.00000147    0.00000000
     atom   14 type  1   force =     0.00000108   -0.00000147    0.00000000
     atom   15 type  2   force =    -0.00000025    0.00000015    0.00000000
     atom   16 type  2   force =     0.00000025    0.00000015    0.00000000

     Total force =     0.000081     Total SCF correction =     0.000006

     bfgs converged in   4 scf cycles and   1 bfgs steps
     (criteria: energy <  1.0E-06, force <  1.0E-05)

     End of BFGS Geometry Optimization

     Final energy   =    -141.0945885371 Ry
Begin final coordinates

ATOMIC_POSITIONS (alat)
H        1.034796716  -0.942667167   0.000000000
H        0.465203283  -0.942667167  -0.000000000
C        0.912122322  -0.717895534   0.000000000
C        0.587877678  -0.717895534   0.000000000
C        0.077266385  -0.435378895   0.000000000
C        0.422733614  -0.435378895  -0.000000000
C        0.917787197  -0.146774811   0.000000000
C        0.582212802  -0.146774811  -0.000000000
C        0.082212802   0.146774811   0.000000000
C        0.417787198   0.146774811  -0.000000000
C        0.922733614   0.435378895   0.000000000
C        0.577266385   0.435378895  -0.000000000
C        0.087877678   0.717895534   0.000000000
C        0.412122322   0.717895534   0.000000000
H       -0.034796716   0.942667167   0.000000000
H        0.534796716   0.942667167  -0.000000000
End final coordinates



     Writing output data file gar-w_04-1H.save

     init_run     :      5.84s CPU      5.89s WALL (       1 calls)
     electrons    :     36.56s CPU     37.58s WALL (       4 calls)
     update_pot   :     12.56s CPU     12.63s WALL (       3 calls)
     forces       :      9.47s CPU      9.49s WALL (       4 calls)

     Called by init_run:
     wfcinit      :      1.61s CPU      1.63s WALL (       1 calls)
     potinit      :      2.05s CPU      2.05s WALL (       1 calls)

     Called by electrons:
     c_bands      :     25.96s CPU     26.85s WALL (      21 calls)
     sum_band     :      5.25s CPU      5.27s WALL (      21 calls)
     v_of_rho     :      4.24s CPU      4.33s WALL (      22 calls)
     v_h          :      0.23s CPU      0.23s WALL (      22 calls)
     v_xc         :      4.01s CPU      4.10s WALL (      22 calls)
     mix_rho      :      0.98s CPU      1.00s WALL (      21 calls)

     Called by c_bands:
     init_us_2    :      0.10s CPU      0.10s WALL (      43 calls)
     cegterg      :     24.79s CPU     25.66s WALL (      21 calls)

     Called by sum_band:

     Called by *egterg:
     h_psi        :     21.83s CPU     22.44s WALL (      97 calls)
     g_psi        :      0.07s CPU      0.08s WALL (      75 calls)
     cdiaghg      :      0.39s CPU      0.45s WALL (      90 calls)
     cegterg:over :      1.72s CPU      1.78s WALL (      75 calls)
     cegterg:upda :      0.71s CPU      0.71s WALL (      75 calls)
     cegterg:last :      0.29s CPU      0.30s WALL (      23 calls)

     Called by h_psi:
     h_psi:vloc   :     21.10s CPU     21.70s WALL (      97 calls)
     h_psi:vnl    :      0.63s CPU      0.63s WALL (      97 calls)
     add_vuspsi   :      0.22s CPU      0.21s WALL (      97 calls)

     General routines
     calbec       :      0.43s CPU      0.44s WALL (     101 calls)
     fft          :      4.02s CPU      4.10s WALL (     255 calls)
     fftw         :     23.20s CPU     23.82s WALL (    3832 calls)

     Parallel routines
     fft_scatter  :     22.06s CPU     22.74s WALL (    4087 calls)

     PWSCF        :  1m 5.43s CPU     1m 6.69s WALL


   This run was terminated on:  12:15:30   6Jul2014            

=------------------------------------------------------------------------------=
   JOB DONE.
=------------------------------------------------------------------------------=
