
     Program PHONON v.5.0.2 (svn rev. 10600) starts on  6Jul2014 at 12:16:42 

     This program is part of the open-source Quantum ESPRESSO suite
     for quantum simulation of materials; please cite
         "P. Giannozzi et al., J. Phys.:Condens. Matter 21 395502 (2009);
          URL http://www.quantum-espresso.org", 
     in publications or presentations arising from this work. More details at
     http://www.quantum-espresso.org/quote

     Parallel version (MPI), running on     8 processors
     K-points division:     npool     =       2
     R & G space division:  proc/nbgrp/npool/nimage =       4

   Info: using nr1, nr2, nr3 values from input

   Info: using nr1s, nr2s, nr3s values from input

     IMPORTANT: XC functional enforced from input :
     Exchange-correlation      = SLA  PW   PBE  PBE ( 1  4  3  4 0)
     Any further DFT definition will be discarded
     Please, verify this is what you really want

               file H.pbe-vbc.UPF: wavefunction(s)  0S renormalized

     Parallelization info
     --------------------
     sticks:   dense  smooth     PW     G-vecs:    dense   smooth      PW
     Min         551     551    156                20911    20911    3154
     Max         552     552    157                20914    20914    3157
     Sum        2207    2207    625                83651    83651   12619


     Calculation of q =    0.0000000   0.0000000   0.0000000

                                                                                

     bravais-lattice index     =            8
     lattice parameter (alat)  =       8.0518  a.u.
     unit-cell volume          =    2990.3752 (a.u.)^3
     number of atoms/cell      =           16
     number of atomic types    =            2
     kinetic-energy cut-off    =      35.0000  Ry
     charge density cut-off    =     140.0000  Ry
     convergence threshold     =      1.0E-14
     beta                      =       0.7000
     number of iterations used =            4
     Exchange-correlation      = SLA  PW   PBE  PBE ( 1  4  3  4 0)


     celldm(1)=    8.05183  celldm(2)=    3.05104  celldm(3)=    1.87756
     celldm(4)=    0.00000  celldm(5)=    0.00000  celldm(6)=    0.00000

     crystal axes: (cart. coord. in units of alat)
               a(1) = (  1.0000  0.0000  0.0000 )  
               a(2) = (  0.0000  3.0510  0.0000 )  
               a(3) = (  0.0000  0.0000  1.8776 )  

     reciprocal axes: (cart. coord. in units 2 pi/alat)
               b(1) = (  1.0000  0.0000  0.0000 )  
               b(2) = (  0.0000  0.3278  0.0000 )  
               b(3) = (  0.0000  0.0000  0.5326 )  


     Atoms inside the unit cell: 

     Cartesian axes

     site n.  atom      mass           positions (alat units)
        1     H    1.0079   tau(    1) = (    1.03480   -0.94267    0.00000  )
        2     H    1.0079   tau(    2) = (    0.46520   -0.94267   -0.00000  )
        3     C   12.0107   tau(    3) = (    0.91212   -0.71790    0.00000  )
        4     C   12.0107   tau(    4) = (    0.58788   -0.71790    0.00000  )
        5     C   12.0107   tau(    5) = (    0.07727   -0.43538    0.00000  )
        6     C   12.0107   tau(    6) = (    0.42273   -0.43538   -0.00000  )
        7     C   12.0107   tau(    7) = (    0.91779   -0.14677    0.00000  )
        8     C   12.0107   tau(    8) = (    0.58221   -0.14677   -0.00000  )
        9     C   12.0107   tau(    9) = (    0.08221    0.14677    0.00000  )
       10     C   12.0107   tau(   10) = (    0.41779    0.14677   -0.00000  )
       11     C   12.0107   tau(   11) = (    0.92273    0.43538    0.00000  )
       12     C   12.0107   tau(   12) = (    0.57727    0.43538   -0.00000  )
       13     C   12.0107   tau(   13) = (    0.08788    0.71790    0.00000  )
       14     C   12.0107   tau(   14) = (    0.41212    0.71790    0.00000  )
       15     H    1.0079   tau(   15) = (   -0.03480    0.94267    0.00000  )
       16     H    1.0079   tau(   16) = (    0.53480    0.94267   -0.00000  )

     Computing dynamical matrix for 
                    q = (   0.0000000   0.0000000   0.0000000 )

      9 Sym.Ops. (with q -> -q+G )


     G cutoff =  229.9098  (  20914 G-vectors)     FFT grid: ( 32, 96, 60)
     number of k points=     2
                       cart. coord. in units 2pi/alat
        k(    1) = (   0.0000000   0.0000000   0.0000000), wk =   1.0000000
        k(    2) = (  -0.5000000   0.0000000   0.0000000), wk =   1.0000000

     PseudoPot. # 1 for C  read from file:
     ../PP_LIBRARY/C.pbe-mt_gipaw.UPF
     MD5 check sum: 5ac2f21f2c440b14befe521540822c15
     Pseudo is Norm-conserving, Zval =  4.0
     Generated by new atomic code, or converted to UPF format
     Using radial grid of 1073 points,  1 beta functions with: 
                l(1) =   0

     PseudoPot. # 2 for H  read from file:
     ../PP_LIBRARY/H.pbe-vbc.UPF
     MD5 check sum: 0ad67d0772b4eb71cad78a7d32695431
     Pseudo is Norm-conserving, Zval =  1.0
     Generated by new atomic code, or converted to UPF format
     Using radial grid of  325 points,  0 beta functions with: 

     Mode symmetry, D_2h (mmm)  point group:


     Electric field:
     Dielectric constant
     Born effective charges as d Force / d E
     Raman tensor


     Atomic displacements:
     There are  48 irreducible representations

     Representation     1      1 modes -A_g  To be done

     Representation     2      1 modes -A_g  To be done

     Representation     3      1 modes -A_g  To be done

     Representation     4      1 modes -A_g  To be done

     Representation     5      1 modes -A_g  To be done

     Representation     6      1 modes -A_g  To be done

     Representation     7      1 modes -A_g  To be done

     Representation     8      1 modes -A_g  To be done

     Representation     9      1 modes -B_1g  To be done

     Representation    10      1 modes -B_1g  To be done

     Representation    11      1 modes -B_1g  To be done

     Representation    12      1 modes -B_1g  To be done

     Representation    13      1 modes -B_1g  To be done

     Representation    14      1 modes -B_1g  To be done

     Representation    15      1 modes -B_1g  To be done

     Representation    16      1 modes -B_1g  To be done

     Representation    17      1 modes -B_2g  To be done

     Representation    18      1 modes -B_2g  To be done

     Representation    19      1 modes -B_2g  To be done

     Representation    20      1 modes -B_2g  To be done

     Representation    21      1 modes -B_3g  To be done

     Representation    22      1 modes -B_3g  To be done

     Representation    23      1 modes -B_3g  To be done

     Representation    24      1 modes -B_3g  To be done

     Representation    25      1 modes -A_u  To be done

     Representation    26      1 modes -A_u  To be done

     Representation    27      1 modes -A_u  To be done

     Representation    28      1 modes -A_u  To be done

     Representation    29      1 modes -B_1u  To be done

     Representation    30      1 modes -B_1u  To be done

     Representation    31      1 modes -B_1u  To be done

     Representation    32      1 modes -B_1u  To be done

     Representation    33      1 modes -B_2u  To be done

     Representation    34      1 modes -B_2u  To be done

     Representation    35      1 modes -B_2u  To be done

     Representation    36      1 modes -B_2u  To be done

     Representation    37      1 modes -B_2u  To be done

     Representation    38      1 modes -B_2u  To be done

     Representation    39      1 modes -B_2u  To be done

     Representation    40      1 modes -B_2u  To be done

     Representation    41      1 modes -B_3u  To be done

     Representation    42      1 modes -B_3u  To be done

     Representation    43      1 modes -B_3u  To be done

     Representation    44      1 modes -B_3u  To be done

     Representation    45      1 modes -B_3u  To be done

     Representation    46      1 modes -B_3u  To be done

     Representation    47      1 modes -B_3u  To be done

     Representation    48      1 modes -B_3u  To be done



     Alpha used in Ewald sum =   1.3000
     PHONON       :    14.79s CPU        15.04s WALL


     Electric Fields Calculation

      iter #   1 total cpu time :    85.1 secs   av.it.:   6.3
      thresh= 1.000E-02 alpha_mix =  0.700 |ddv_scf|^2 =  4.328E-05

      iter #   2 total cpu time :   112.6 secs   av.it.:  10.3
      thresh= 6.579E-04 alpha_mix =  0.700 |ddv_scf|^2 =  2.606E-04

      iter #   3 total cpu time :   137.7 secs   av.it.:   8.3
      thresh= 1.614E-03 alpha_mix =  0.700 |ddv_scf|^2 =  1.467E-06

      iter #   4 total cpu time :   168.0 secs   av.it.:  10.7
      thresh= 1.211E-04 alpha_mix =  0.700 |ddv_scf|^2 =  4.930E-08

      iter #   5 total cpu time :   195.2 secs   av.it.:  10.7
      thresh= 2.220E-05 alpha_mix =  0.700 |ddv_scf|^2 =  5.200E-09

      iter #   6 total cpu time :   221.2 secs   av.it.:  11.0
      thresh= 7.211E-06 alpha_mix =  0.700 |ddv_scf|^2 =  5.613E-10

      iter #   7 total cpu time :   249.9 secs   av.it.:  11.0
      thresh= 2.369E-06 alpha_mix =  0.700 |ddv_scf|^2 =  8.596E-11

      iter #   8 total cpu time :   276.5 secs   av.it.:  11.3
      thresh= 9.271E-07 alpha_mix =  0.700 |ddv_scf|^2 =  9.316E-12

      iter #   9 total cpu time :   301.2 secs   av.it.:  11.7
      thresh= 3.052E-07 alpha_mix =  0.700 |ddv_scf|^2 =  3.448E-12

      iter #  10 total cpu time :   331.7 secs   av.it.:  11.0
      thresh= 1.857E-07 alpha_mix =  0.700 |ddv_scf|^2 =  5.775E-13

      iter #  11 total cpu time :   359.2 secs   av.it.:  11.3
      thresh= 7.599E-08 alpha_mix =  0.700 |ddv_scf|^2 =  1.829E-13

      iter #  12 total cpu time :   392.4 secs   av.it.:  11.3
      thresh= 4.276E-08 alpha_mix =  0.700 |ddv_scf|^2 =  1.183E-14

      iter #  13 total cpu time :   416.4 secs   av.it.:  11.3
      thresh= 1.088E-08 alpha_mix =  0.700 |ddv_scf|^2 =  3.166E-15

     End of electric fields calculation

          Dielectric constant in cartesian axis 

          (      12.975405543       0.000000000       0.000000000 )
          (       0.000000000       1.886692426       0.000000000 )
          (       0.000000000       0.000000000       1.260291247 )

          Effective charges (d Force / dE) in cartesian axis

           atom      1   H  
      Ex  (        0.08085        0.22322       -0.00000 )
      Ey  (        0.12834       -0.02139       -0.00000 )
      Ez  (       -0.00000       -0.00000        0.12373 )
           atom      2   H  
      Ex  (        0.08085       -0.22322        0.00000 )
      Ey  (       -0.12834       -0.02139        0.00000 )
      Ez  (        0.00000        0.00000        0.12373 )
           atom      3   C  
      Ex  (       -1.07313       -1.61755        0.00000 )
      Ey  (       -0.12743        0.08454        0.00000 )
      Ez  (        0.00000       -0.00000       -0.11721 )
           atom      4   C  
      Ex  (       -1.07313        1.61755        0.00000 )
      Ey  (        0.12743        0.08454       -0.00000 )
      Ez  (        0.00000        0.00000       -0.11721 )
           atom      5   C  
      Ex  (        0.05150        0.09179       -0.00000 )
      Ey  (        0.11706       -0.06134        0.00000 )
      Ez  (       -0.00000        0.00000        0.00964 )
           atom      6   C  
      Ex  (        0.05150       -0.09179        0.00000 )
      Ey  (       -0.11706       -0.06134       -0.00000 )
      Ez  (        0.00000        0.00000        0.00964 )
           atom      7   C  
      Ex  (       -0.96601        1.05365        0.00000 )
      Ey  (        0.11686        0.05306        0.00000 )
      Ez  (        0.00000        0.00000        0.02565 )
           atom      8   C  
      Ex  (       -0.96601       -1.05365        0.00000 )
      Ey  (       -0.11686        0.05306        0.00000 )
      Ez  (       -0.00000        0.00000        0.02565 )
           atom      9   C  
      Ex  (       -0.96601        1.05365        0.00000 )
      Ey  (        0.11686        0.05306        0.00000 )
      Ez  (       -0.00000        0.00000        0.02565 )
           atom     10   C  
      Ex  (       -0.96601       -1.05365        0.00000 )
      Ey  (       -0.11686        0.05306       -0.00000 )
      Ez  (        0.00000        0.00000        0.02565 )
           atom     11   C  
      Ex  (        0.05150        0.09179        0.00000 )
      Ey  (        0.11706       -0.06134       -0.00000 )
      Ez  (       -0.00000       -0.00000        0.00964 )
           atom     12   C  
      Ex  (        0.05150       -0.09179       -0.00000 )
      Ey  (       -0.11706       -0.06134        0.00000 )
      Ez  (       -0.00000       -0.00000        0.00964 )
           atom     13   C  
      Ex  (       -1.07313       -1.61755        0.00000 )
      Ey  (       -0.12743        0.08454       -0.00000 )
      Ez  (        0.00000       -0.00000       -0.11721 )
           atom     14   C  
      Ex  (       -1.07313        1.61755        0.00000 )
      Ey  (        0.12743        0.08454       -0.00000 )
      Ez  (        0.00000       -0.00000       -0.11721 )
           atom     15   H  
      Ex  (        0.08085        0.22322        0.00000 )
      Ey  (        0.12834       -0.02139        0.00000 )
      Ez  (        0.00000        0.00000        0.12373 )
           atom     16   H  
      Ex  (        0.08085       -0.22322       -0.00000 )
      Ey  (       -0.12834       -0.02139       -0.00000 )
      Ez  (       -0.00000        0.00000        0.12373 )

     Calling punch_plot_e
     Writing on file  gar-w_04-1H-ph.fildrho                                                                                                                                                                                                                                          

     Computing Pc [DH,Drho] |psi> 

     Derivative coefficient:  0.001000    Threshold: 1.00E-12
     Non-scf  u_k: avg # of iterations = 19.3
     Non-scf Du_k: avg # of iterations = 30.0

          Dielectric constant from finite-differences

          (      12.971415210       0.000000000       0.000000000 )
          (       0.000000000       1.886674357       0.000000000 )
          (       0.000000000       0.000000000       1.260293652 )

     Computing Second order response 


      iter #   1   av.it.:   9.3
      thresh= 1.000E-02 alpha_mix =  0.700 |ddv_scf|^2 =  1.109E-04


      iter #   2   av.it.:  10.5
      thresh= 1.053E-03 alpha_mix =  0.700 |ddv_scf|^2 =  4.356E-05


      iter #   3   av.it.:   9.7
      thresh= 6.600E-04 alpha_mix =  0.700 |ddv_scf|^2 =  4.662E-05


      iter #   4   av.it.:   8.2
      thresh= 6.828E-04 alpha_mix =  0.700 |ddv_scf|^2 =  2.029E-06


      iter #   5   av.it.:   9.8
      thresh= 1.425E-04 alpha_mix =  0.700 |ddv_scf|^2 =  2.392E-07


      iter #   6   av.it.:   9.5
      thresh= 4.890E-05 alpha_mix =  0.700 |ddv_scf|^2 =  1.918E-08


      iter #   7   av.it.:   9.8
      thresh= 1.385E-05 alpha_mix =  0.700 |ddv_scf|^2 =  7.928E-10


      iter #   8   av.it.:  10.0
      thresh= 2.816E-06 alpha_mix =  0.700 |ddv_scf|^2 =  4.134E-11


      iter #   9   av.it.:  10.2
      thresh= 6.429E-07 alpha_mix =  0.700 |ddv_scf|^2 =  4.452E-12


      iter #  10   av.it.:  10.8
      thresh= 2.110E-07 alpha_mix =  0.700 |ddv_scf|^2 =  8.856E-13


      iter #  11   av.it.:  10.7
      thresh= 9.411E-08 alpha_mix =  0.700 |ddv_scf|^2 =  3.554E-13


      iter #  12   av.it.:  10.2
      thresh= 5.962E-08 alpha_mix =  0.700 |ddv_scf|^2 =  6.449E-14


      iter #  13   av.it.:  10.7
      thresh= 2.540E-08 alpha_mix =  0.700 |ddv_scf|^2 =  1.096E-14


      iter #  14   av.it.:  10.3
      thresh= 1.047E-08 alpha_mix =  0.700 |ddv_scf|^2 =  1.924E-15

          Raman tensor (au^-1) in cartesian axis 

           atom      1
          (      -0.102122537      -0.016428023      -0.000000000 )
          (      -0.016428023       0.011687907       0.000000000 )
          (      -0.000000000       0.000000000       0.000584218 )

          (      -0.027669766       0.014509749       0.000000000 )
          (       0.014509749      -0.065531382      -0.000000000 )
          (       0.000000000      -0.000000000      -0.003195650 )

          (      -0.000000000       0.000000000       0.010286794 )
          (       0.000000000       0.000000000      -0.000623449 )
          (       0.010286794      -0.000623449       0.000000000 )

           atom      2
          (       0.102122537      -0.016428023       0.000000000 )
          (      -0.016428023      -0.011687907      -0.000000000 )
          (       0.000000000      -0.000000000      -0.000584218 )

          (      -0.027669766      -0.014509749      -0.000000000 )
          (      -0.014509749      -0.065531382       0.000000000 )
          (      -0.000000000       0.000000000      -0.003195650 )

          (       0.000000000      -0.000000000      -0.010286794 )
          (      -0.000000000       0.000000000      -0.000623449 )
          (      -0.010286794      -0.000623449       0.000000000 )

           atom      3
          (      -6.938752070      -0.160417326      -0.000000000 )
          (      -0.160417326       0.041179080       0.000000000 )
          (      -0.000000000       0.000000000       0.006980477 )

          (      -5.493475117      -0.193746993      -0.000000000 )
          (      -0.193746993      -0.004836745       0.000000000 )
          (      -0.000000000       0.000000000      -0.003980979 )

          (      -0.000000000       0.000000000      -0.056906100 )
          (       0.000000000       0.000000000      -0.026150101 )
          (      -0.056906100      -0.026150101       0.000000000 )

           atom      4
          (       6.938752070      -0.160417326       0.000000000 )
          (      -0.160417326      -0.041179080      -0.000000000 )
          (       0.000000000      -0.000000000      -0.006980477 )

          (      -5.493475117       0.193746993       0.000000000 )
          (       0.193746993      -0.004836745       0.000000000 )
          (       0.000000000       0.000000000      -0.003980979 )

          (       0.000000000       0.000000000       0.056906100 )
          (       0.000000000       0.000000000      -0.026150101 )
          (       0.056906100      -0.026150101       0.000000000 )

           atom      5
          (      13.808907649      -0.122887463       0.000000000 )
          (      -0.122887463       0.074842522      -0.000000000 )
          (       0.000000000      -0.000000000       0.001001539 )

          (       1.332373856       0.521309571       0.000000000 )
          (       0.521309571      -0.040442312      -0.000000000 )
          (       0.000000000      -0.000000000       0.001356102 )

          (       0.000000000      -0.000000000       0.104025808 )
          (      -0.000000000       0.000000000      -0.004995126 )
          (       0.104025808      -0.004995126      -0.000000000 )

           atom      6
          (     -13.808907649      -0.122887463       0.000000000 )
          (      -0.122887463      -0.074842522      -0.000000000 )
          (       0.000000000      -0.000000000      -0.001001539 )

          (       1.332373856      -0.521309571       0.000000000 )
          (      -0.521309571      -0.040442312      -0.000000000 )
          (       0.000000000      -0.000000000       0.001356102 )

          (      -0.000000000      -0.000000000      -0.104025808 )
          (      -0.000000000      -0.000000000      -0.004995126 )
          (      -0.104025808      -0.004995126      -0.000000000 )

           atom      7
          (      -2.351670667       0.014615441       0.000000000 )
          (       0.014615441       0.061003459       0.000000000 )
          (       0.000000000       0.000000000       0.000323649 )

          (       5.346977737      -0.569047745       0.000000000 )
          (      -0.569047745       0.114182820       0.000000000 )
          (       0.000000000       0.000000000       0.000660748 )

          (       0.000000000       0.000000000      -0.024194036 )
          (       0.000000000       0.000000000       0.004276985 )
          (      -0.024194036       0.004276985       0.000000000 )

           atom      8
          (       2.351670667       0.014615441      -0.000000000 )
          (       0.014615441      -0.061003459       0.000000000 )
          (      -0.000000000       0.000000000      -0.000323649 )

          (       5.346977737       0.569047745       0.000000000 )
          (       0.569047745       0.114182820       0.000000000 )
          (       0.000000000       0.000000000       0.000660748 )

          (       0.000000000       0.000000000       0.024194036 )
          (       0.000000000       0.000000000       0.004276985 )
          (       0.024194036       0.004276985       0.000000000 )

           atom      9
          (       2.351670667      -0.014615441       0.000000000 )
          (      -0.014615441      -0.061003459       0.000000000 )
          (       0.000000000       0.000000000      -0.000323649 )

          (      -5.346977737       0.569047745      -0.000000000 )
          (       0.569047745      -0.114182820       0.000000000 )
          (      -0.000000000       0.000000000      -0.000660748 )

          (       0.000000000       0.000000000       0.024194036 )
          (       0.000000000       0.000000000      -0.004276985 )
          (       0.024194036      -0.004276985       0.000000000 )

           atom     10
          (      -2.351670667      -0.014615441       0.000000000 )
          (      -0.014615441       0.061003459       0.000000000 )
          (       0.000000000       0.000000000       0.000323649 )

          (      -5.346977737      -0.569047745       0.000000000 )
          (      -0.569047745      -0.114182820       0.000000000 )
          (       0.000000000       0.000000000      -0.000660748 )

          (       0.000000000      -0.000000000      -0.024194036 )
          (      -0.000000000       0.000000000      -0.004276985 )
          (      -0.024194036      -0.004276985       0.000000000 )

           atom     11
          (     -13.808907649       0.122887463       0.000000000 )
          (       0.122887463      -0.074842522      -0.000000000 )
          (       0.000000000      -0.000000000      -0.001001539 )

          (      -1.332373856      -0.521309571       0.000000000 )
          (      -0.521309571       0.040442312      -0.000000000 )
          (       0.000000000      -0.000000000      -0.001356102 )

          (       0.000000000      -0.000000000      -0.104025808 )
          (      -0.000000000       0.000000000       0.004995126 )
          (      -0.104025808       0.004995126       0.000000000 )

           atom     12
          (      13.808907649       0.122887463       0.000000000 )
          (       0.122887463       0.074842522      -0.000000000 )
          (       0.000000000      -0.000000000       0.001001539 )

          (      -1.332373856       0.521309571       0.000000000 )
          (       0.521309571       0.040442312      -0.000000000 )
          (       0.000000000      -0.000000000      -0.001356102 )

          (      -0.000000000      -0.000000000       0.104025808 )
          (      -0.000000000      -0.000000000       0.004995126 )
          (       0.104025808       0.004995126       0.000000000 )

           atom     13
          (       6.938752070       0.160417326      -0.000000000 )
          (       0.160417326      -0.041179080       0.000000000 )
          (      -0.000000000       0.000000000      -0.006980477 )

          (       5.493475117       0.193746993       0.000000000 )
          (       0.193746993       0.004836745       0.000000000 )
          (       0.000000000       0.000000000       0.003980979 )

          (      -0.000000000       0.000000000       0.056906100 )
          (       0.000000000       0.000000000       0.026150101 )
          (       0.056906100       0.026150101       0.000000000 )

           atom     14
          (      -6.938752070       0.160417326       0.000000000 )
          (       0.160417326       0.041179080       0.000000000 )
          (       0.000000000       0.000000000       0.006980477 )

          (       5.493475117      -0.193746993       0.000000000 )
          (      -0.193746993       0.004836745       0.000000000 )
          (       0.000000000       0.000000000       0.003980979 )

          (       0.000000000       0.000000000      -0.056906100 )
          (       0.000000000       0.000000000       0.026150101 )
          (      -0.056906100       0.026150101       0.000000000 )

           atom     15
          (       0.102122537       0.016428023       0.000000000 )
          (       0.016428023      -0.011687907       0.000000000 )
          (       0.000000000       0.000000000      -0.000584218 )

          (       0.027669766      -0.014509749       0.000000000 )
          (      -0.014509749       0.065531382      -0.000000000 )
          (       0.000000000      -0.000000000       0.003195650 )

          (      -0.000000000       0.000000000      -0.010286794 )
          (       0.000000000       0.000000000       0.000623449 )
          (      -0.010286794       0.000623449       0.000000000 )

           atom     16
          (      -0.102122537       0.016428023       0.000000000 )
          (       0.016428023       0.011687907       0.000000000 )
          (       0.000000000       0.000000000       0.000584218 )

          (       0.027669766       0.014509749       0.000000000 )
          (       0.014509749       0.065531382       0.000000000 )
          (       0.000000000       0.000000000       0.003195650 )

          (       0.000000000      -0.000000000       0.010286794 )
          (      -0.000000000       0.000000000       0.000623449 )
          (       0.010286794       0.000623449       0.000000000 )


     Raman tensor (A^2)

     atom #    1    pol.  1
     -0.680518091476E+01     -0.109472081528E+01     -0.143348852478E-25
     -0.109472081528E+01      0.778851801798E+00      0.000000000000E+00
     -0.143348852478E-25      0.000000000000E+00      0.389307536443E-01
     atom #    1    pol.  2
     -0.184384143944E+01      0.966892021977E+00      0.000000000000E+00
      0.966892021977E+00     -0.436684129715E+01     -0.246387668353E-25
      0.000000000000E+00     -0.246387668353E-25     -0.212949855523E+00
     atom #    1    pol.  3
     -0.458716327931E-24      0.225521442248E-24      0.685485293992E+00
      0.225521442248E-24      0.000000000000E+00     -0.415450483544E-01
      0.685485293992E+00     -0.415450483544E-01      0.000000000000E+00
     atom #    2    pol.  1
      0.680518091476E+01     -0.109472081528E+01      0.000000000000E+00
     -0.109472081528E+01     -0.778851801798E+00     -0.469836338016E-26
      0.000000000000E+00     -0.469836338016E-26     -0.389307536443E-01
     atom #    2    pol.  2
     -0.184384143944E+01     -0.966892021977E+00     -0.751738140825E-25
     -0.966892021977E+00     -0.436684129715E+01      0.246387668353E-25
     -0.751738140825E-25      0.246387668353E-25     -0.212949855523E+00
     atom #    2    pol.  3
      0.000000000000E+00     -0.150347628165E-24     -0.685485293992E+00
     -0.150347628165E-24      0.000000000000E+00     -0.415450483544E-01
     -0.685485293992E+00     -0.415450483544E-01      0.000000000000E+00
     atom #    3    pol.  1
     -0.462380434297E+03     -0.106897943749E+02     -0.917432655862E-24
     -0.106897943749E+02      0.274406701734E+01      0.704754507024E-26
     -0.917432655862E-24      0.704754507024E-26      0.465160867026E+00
     atom #    3    pol.  2
     -0.366070928135E+03     -0.129107969237E+02     -0.150347628165E-24
     -0.129107969237E+02     -0.322308113335E+00      0.461976878161E-26
     -0.150347628165E-24      0.461976878161E-26     -0.265282114852E+00
     atom #    3    pol.  3
     -0.733946124690E-23      0.000000000000E+00     -0.379207482819E+01
      0.000000000000E+00      0.000000000000E+00     -0.174257489802E+01
     -0.379207482819E+01     -0.174257489802E+01      0.162654359186E-25
     atom #    4    pol.  1
      0.462380434297E+03     -0.106897943749E+02      0.458716327931E-24
     -0.106897943749E+02     -0.274406701734E+01     -0.469836338016E-26
      0.458716327931E-24     -0.469836338016E-26     -0.465160867026E+00
     atom #    4    pol.  2
     -0.366070928135E+03      0.129107969237E+02      0.000000000000E+00
      0.129107969237E+02     -0.322308113335E+00      0.000000000000E+00
      0.000000000000E+00      0.000000000000E+00     -0.265282114852E+00
     atom #    4    pol.  3
      0.733946124690E-23      0.300695256330E-24      0.379207482819E+01
      0.300695256330E-24      0.000000000000E+00     -0.174257489802E+01
      0.379207482819E+01     -0.174257489802E+01      0.000000000000E+00
     atom #    5    pol.  1
      0.920189776455E+03     -0.818890167024E+01      0.000000000000E+00
     -0.818890167024E+01      0.498731148619E+01     -0.187934535206E-25
      0.000000000000E+00     -0.187934535206E-25      0.667399844296E-01
     atom #    5    pol.  2
      0.887859367142E+02      0.347387172005E+02      0.000000000000E+00
      0.347387172005E+02     -0.269497074300E+01     -0.123193834176E-25
      0.000000000000E+00     -0.123193834176E-25      0.903670869532E-01
     atom #    5    pol.  3
      0.293578449876E-22     -0.150347628165E-24      0.693200994655E+01
     -0.150347628165E-24      0.985550673411E-25     -0.332862256541E+00
      0.693200994655E+01     -0.332862256541E+00     -0.162654359186E-25
     atom #    6    pol.  1
     -0.920189776455E+03     -0.818890167024E+01      0.114679081983E-24
     -0.818890167024E+01     -0.498731148619E+01     -0.939672676032E-26
      0.114679081983E-24     -0.939672676032E-26     -0.667399844296E-01
     atom #    6    pol.  2
      0.887859367142E+02     -0.347387172005E+02      0.000000000000E+00
     -0.347387172005E+02     -0.269497074300E+01     -0.184790751265E-25
      0.000000000000E+00     -0.184790751265E-25      0.903670869532E-01
     atom #    6    pol.  3
     -0.146789224938E-22     -0.300695256330E-24     -0.693200994655E+01
     -0.300695256330E-24     -0.492775336706E-25     -0.332862256541E+00
     -0.693200994655E+01     -0.332862256541E+00     -0.406635897965E-26
     atom #    7    pol.  1
     -0.156709231499E+03      0.973935041987E+00      0.000000000000E+00
      0.973935041987E+00      0.406511224445E+01      0.000000000000E+00
      0.000000000000E+00      0.000000000000E+00      0.215671263323E-01
     atom #    7    pol.  2
      0.356308722858E+03     -0.379198652143E+02      0.000000000000E+00
     -0.379198652143E+02      0.760884686397E+01      0.184790751265E-25
      0.000000000000E+00      0.184790751265E-25      0.440305332415E-01
     atom #    7    pol.  3
      0.000000000000E+00      0.000000000000E+00     -0.161222778022E+01
      0.000000000000E+00      0.000000000000E+00      0.285007187270E+00
     -0.161222778022E+01      0.285007187270E+00      0.000000000000E+00
     atom #    8    pol.  1
      0.156709231499E+03      0.973935041987E+00     -0.229358163966E-24
      0.973935041987E+00     -0.406511224445E+01      0.000000000000E+00
     -0.229358163966E-24      0.000000000000E+00     -0.215671263323E-01
     atom #    8    pol.  2
      0.356308722858E+03      0.379198652143E+02      0.000000000000E+00
      0.379198652143E+02      0.760884686397E+01      0.246387668353E-25
      0.000000000000E+00      0.246387668353E-25      0.440305332415E-01
     atom #    8    pol.  3
      0.366973062345E-23      0.000000000000E+00      0.161222778022E+01
      0.000000000000E+00      0.000000000000E+00      0.285007187270E+00
      0.161222778022E+01      0.285007187270E+00      0.000000000000E+00
     atom #    9    pol.  1
      0.156709231499E+03     -0.973935041987E+00      0.000000000000E+00
     -0.973935041987E+00     -0.406511224445E+01      0.000000000000E+00
      0.000000000000E+00      0.000000000000E+00     -0.215671263323E-01
     atom #    9    pol.  2
     -0.356308722858E+03      0.379198652143E+02     -0.300695256330E-24
      0.379198652143E+02     -0.760884686397E+01      0.246387668353E-25
     -0.300695256330E-24      0.246387668353E-25     -0.440305332415E-01
     atom #    9    pol.  3
      0.366973062345E-23      0.375869070413E-24      0.161222778022E+01
      0.375869070413E-24      0.000000000000E+00     -0.285007187270E+00
      0.161222778022E+01     -0.285007187270E+00      0.000000000000E+00
     atom #   10    pol.  1
     -0.156709231499E+03     -0.973935041987E+00      0.000000000000E+00
     -0.973935041987E+00      0.406511224445E+01      0.000000000000E+00
      0.000000000000E+00      0.000000000000E+00      0.215671263323E-01
     atom #   10    pol.  2
     -0.356308722858E+03     -0.379198652143E+02      0.000000000000E+00
     -0.379198652143E+02     -0.760884686397E+01      0.184790751265E-25
      0.000000000000E+00      0.184790751265E-25     -0.440305332415E-01
     atom #   10    pol.  3
      0.000000000000E+00     -0.300695256330E-24     -0.161222778022E+01
     -0.300695256330E-24      0.000000000000E+00     -0.285007187270E+00
     -0.161222778022E+01     -0.285007187270E+00      0.000000000000E+00
     atom #   11    pol.  1
     -0.920189776455E+03      0.818890167024E+01      0.000000000000E+00
      0.818890167024E+01     -0.498731148619E+01     -0.187934535206E-25
      0.000000000000E+00     -0.187934535206E-25     -0.667399844296E-01
     atom #   11    pol.  2
     -0.887859367142E+02     -0.347387172005E+02      0.000000000000E+00
     -0.347387172005E+02      0.269497074300E+01     -0.123193834176E-25
      0.000000000000E+00     -0.123193834176E-25     -0.903670869532E-01
     atom #   11    pol.  3
      0.366973062345E-22     -0.300695256330E-24     -0.693200994655E+01
     -0.300695256330E-24      0.985550673411E-25      0.332862256541E+00
     -0.693200994655E+01      0.332862256541E+00      0.813271795930E-26
     atom #   12    pol.  1
      0.920189776455E+03      0.818890167024E+01      0.000000000000E+00
      0.818890167024E+01      0.498731148619E+01     -0.281901802810E-25
      0.000000000000E+00     -0.281901802810E-25      0.667399844296E-01
     atom #   12    pol.  2
     -0.887859367142E+02      0.347387172005E+02      0.000000000000E+00
      0.347387172005E+02      0.269497074300E+01     -0.184790751265E-25
      0.000000000000E+00     -0.184790751265E-25     -0.903670869532E-01
     atom #   12    pol.  3
     -0.146789224938E-22     -0.150347628165E-24      0.693200994655E+01
     -0.150347628165E-24     -0.492775336706E-25      0.332862256541E+00
      0.693200994655E+01      0.332862256541E+00      0.000000000000E+00
     atom #   13    pol.  1
      0.462380434297E+03      0.106897943749E+02     -0.917432655862E-24
      0.106897943749E+02     -0.274406701734E+01      0.234918169008E-26
     -0.917432655862E-24      0.234918169008E-26     -0.465160867026E+00
     atom #   13    pol.  2
      0.366070928135E+03      0.129107969237E+02      0.601390512660E-24
      0.129107969237E+02      0.322308113335E+00      0.461976878161E-26
      0.601390512660E-24      0.461976878161E-26      0.265282114852E+00
     atom #   13    pol.  3
     -0.733946124690E-23      0.000000000000E+00      0.379207482819E+01
      0.000000000000E+00      0.000000000000E+00      0.174257489802E+01
      0.379207482819E+01      0.174257489802E+01      0.162654359186E-25
     atom #   14    pol.  1
     -0.462380434297E+03      0.106897943749E+02      0.458716327931E-24
      0.106897943749E+02      0.274406701734E+01      0.469836338016E-26
      0.458716327931E-24      0.469836338016E-26      0.465160867026E+00
     atom #   14    pol.  2
      0.366070928135E+03     -0.129107969237E+02      0.000000000000E+00
     -0.129107969237E+02      0.322308113335E+00      0.000000000000E+00
      0.000000000000E+00      0.000000000000E+00      0.265282114852E+00
     atom #   14    pol.  3
      0.733946124690E-23      0.300695256330E-24     -0.379207482819E+01
      0.300695256330E-24      0.000000000000E+00      0.174257489802E+01
     -0.379207482819E+01      0.174257489802E+01      0.813271795930E-26
     atom #   15    pol.  1
      0.680518091476E+01      0.109472081528E+01      0.000000000000E+00
      0.109472081528E+01     -0.778851801798E+00      0.000000000000E+00
      0.000000000000E+00      0.000000000000E+00     -0.389307536443E-01
     atom #   15    pol.  2
      0.184384143944E+01     -0.966892021977E+00      0.000000000000E+00
     -0.966892021977E+00      0.436684129715E+01     -0.246387668353E-25
      0.000000000000E+00     -0.246387668353E-25      0.212949855523E+00
     atom #   15    pol.  3
     -0.917432655862E-24      0.150347628165E-24     -0.685485293992E+00
      0.150347628165E-24      0.000000000000E+00      0.415450483544E-01
     -0.685485293992E+00      0.415450483544E-01      0.000000000000E+00
     atom #   16    pol.  1
     -0.680518091476E+01      0.109472081528E+01      0.000000000000E+00
      0.109472081528E+01      0.778851801798E+00      0.000000000000E+00
      0.000000000000E+00      0.000000000000E+00      0.389307536443E-01
     atom #   16    pol.  2
      0.184384143944E+01      0.966892021977E+00      0.000000000000E+00
      0.966892021977E+00      0.436684129715E+01      0.246387668353E-25
      0.000000000000E+00      0.246387668353E-25      0.212949855523E+00
     atom #   16    pol.  3
      0.917432655862E-24     -0.225521442248E-24      0.685485293992E+00
     -0.225521442248E-24      0.000000000000E+00      0.415450483544E-01
      0.685485293992E+00      0.415450483544E-01      0.000000000000E+00


     Representation #  1 mode #   1

     Self-consistent Calculation

      iter #   1 total cpu time :  1879.7 secs   av.it.:   5.5
      thresh= 1.000E-02 alpha_mix =  0.700 |ddv_scf|^2 =  2.260E-07

      iter #   2 total cpu time :  1889.5 secs   av.it.:  11.0
      thresh= 4.753E-05 alpha_mix =  0.700 |ddv_scf|^2 =  4.314E-07

      iter #   3 total cpu time :  1902.6 secs   av.it.:  10.0
      thresh= 6.568E-05 alpha_mix =  0.700 |ddv_scf|^2 =  4.863E-08

      iter #   4 total cpu time :  1913.1 secs   av.it.:  10.0
      thresh= 2.205E-05 alpha_mix =  0.700 |ddv_scf|^2 =  1.663E-09

      iter #   5 total cpu time :  1924.7 secs   av.it.:  11.0
      thresh= 4.078E-06 alpha_mix =  0.700 |ddv_scf|^2 =  2.866E-10

      iter #   6 total cpu time :  1937.1 secs   av.it.:  10.0
      thresh= 1.693E-06 alpha_mix =  0.700 |ddv_scf|^2 =  1.622E-11

      iter #   7 total cpu time :  1947.3 secs   av.it.:  10.0
      thresh= 4.028E-07 alpha_mix =  0.700 |ddv_scf|^2 =  5.369E-13

      iter #   8 total cpu time :  1960.9 secs   av.it.:  10.0
      thresh= 7.328E-08 alpha_mix =  0.700 |ddv_scf|^2 =  1.499E-14

      iter #   9 total cpu time :  1974.6 secs   av.it.:  10.0
      thresh= 1.224E-08 alpha_mix =  0.700 |ddv_scf|^2 =  2.756E-16

     End of self-consistent calculation

     Convergence has been achieved 


     Representation #  2 mode #   2

     Self-consistent Calculation

      iter #   1 total cpu time :  1983.9 secs   av.it.:   4.0
      thresh= 1.000E-02 alpha_mix =  0.700 |ddv_scf|^2 =  1.148E-08

      iter #   2 total cpu time :  1995.9 secs   av.it.:  11.0
      thresh= 1.072E-05 alpha_mix =  0.700 |ddv_scf|^2 =  3.445E-08

      iter #   3 total cpu time :  2008.9 secs   av.it.:   9.5
      thresh= 1.856E-05 alpha_mix =  0.700 |ddv_scf|^2 =  1.147E-09

      iter #   4 total cpu time :  2030.2 secs   av.it.:  10.5
      thresh= 3.387E-06 alpha_mix =  0.700 |ddv_scf|^2 =  1.056E-10

      iter #   5 total cpu time :  2044.9 secs   av.it.:  11.0
      thresh= 1.028E-06 alpha_mix =  0.700 |ddv_scf|^2 =  1.204E-11

      iter #   6 total cpu time :  2054.9 secs   av.it.:  10.0
      thresh= 3.470E-07 alpha_mix =  0.700 |ddv_scf|^2 =  1.004E-12

      iter #   7 total cpu time :  2064.3 secs   av.it.:  10.0
      thresh= 1.002E-07 alpha_mix =  0.700 |ddv_scf|^2 =  3.559E-14

      iter #   8 total cpu time :  2074.1 secs   av.it.:  10.5
      thresh= 1.887E-08 alpha_mix =  0.700 |ddv_scf|^2 =  3.401E-16

     End of self-consistent calculation

     Convergence has been achieved 


     Representation #  3 mode #   3

     Self-consistent Calculation

      iter #   1 total cpu time :  2084.1 secs   av.it.:   5.5
      thresh= 1.000E-02 alpha_mix =  0.700 |ddv_scf|^2 =  6.910E-07

      iter #   2 total cpu time :  2098.0 secs   av.it.:  11.0
      thresh= 8.312E-05 alpha_mix =  0.700 |ddv_scf|^2 =  3.416E-06

      iter #   3 total cpu time :  2107.4 secs   av.it.:   9.0
      thresh= 1.848E-04 alpha_mix =  0.700 |ddv_scf|^2 =  1.386E-08

      iter #   4 total cpu time :  2118.3 secs   av.it.:  11.0
      thresh= 1.177E-05 alpha_mix =  0.700 |ddv_scf|^2 =  2.028E-09

      iter #   5 total cpu time :  2131.2 secs   av.it.:  10.0
      thresh= 4.503E-06 alpha_mix =  0.700 |ddv_scf|^2 =  2.770E-11

      iter #   6 total cpu time :  2150.4 secs   av.it.:  11.0
      thresh= 5.263E-07 alpha_mix =  0.700 |ddv_scf|^2 =  1.421E-11

      iter #   7 total cpu time :  2167.5 secs   av.it.:  10.0
      thresh= 3.769E-07 alpha_mix =  0.700 |ddv_scf|^2 =  1.003E-12

      iter #   8 total cpu time :  2181.9 secs   av.it.:  10.0
      thresh= 1.001E-07 alpha_mix =  0.700 |ddv_scf|^2 =  3.430E-14

      iter #   9 total cpu time :  2193.4 secs   av.it.:  10.0
      thresh= 1.852E-08 alpha_mix =  0.700 |ddv_scf|^2 =  2.286E-16

     End of self-consistent calculation

     Convergence has been achieved 


     Representation #  4 mode #   4

     Self-consistent Calculation

      iter #   1 total cpu time :  2201.5 secs   av.it.:   5.5
      thresh= 1.000E-02 alpha_mix =  0.700 |ddv_scf|^2 =  8.917E-07

      iter #   2 total cpu time :  2213.8 secs   av.it.:  11.0
      thresh= 9.443E-05 alpha_mix =  0.700 |ddv_scf|^2 =  1.400E-06

      iter #   3 total cpu time :  2222.6 secs   av.it.:   9.0
      thresh= 1.183E-04 alpha_mix =  0.700 |ddv_scf|^2 =  1.127E-07

      iter #   4 total cpu time :  2233.8 secs   av.it.:  10.0
      thresh= 3.358E-05 alpha_mix =  0.700 |ddv_scf|^2 =  1.517E-09

      iter #   5 total cpu time :  2245.7 secs   av.it.:  10.0
      thresh= 3.895E-06 alpha_mix =  0.700 |ddv_scf|^2 =  8.242E-12

      iter #   6 total cpu time :  2254.5 secs   av.it.:  11.0
      thresh= 2.871E-07 alpha_mix =  0.700 |ddv_scf|^2 =  3.995E-12

      iter #   7 total cpu time :  2264.5 secs   av.it.:  11.0
      thresh= 1.999E-07 alpha_mix =  0.700 |ddv_scf|^2 =  2.789E-13

      iter #   8 total cpu time :  2271.3 secs   av.it.:  11.0
      thresh= 5.281E-08 alpha_mix =  0.700 |ddv_scf|^2 =  4.323E-14

      iter #   9 total cpu time :  2277.9 secs   av.it.:  10.0
      thresh= 2.079E-08 alpha_mix =  0.700 |ddv_scf|^2 =  4.056E-15

     End of self-consistent calculation

     Convergence has been achieved 


     Representation #  5 mode #   5

     Self-consistent Calculation

      iter #   1 total cpu time :  2285.3 secs   av.it.:   6.0
      thresh= 1.000E-02 alpha_mix =  0.700 |ddv_scf|^2 =  4.116E-06

      iter #   2 total cpu time :  2292.1 secs   av.it.:  10.5
      thresh= 2.029E-04 alpha_mix =  0.700 |ddv_scf|^2 =  2.254E-05

      iter #   3 total cpu time :  2298.2 secs   av.it.:   9.0
      thresh= 4.748E-04 alpha_mix =  0.700 |ddv_scf|^2 =  1.360E-09

      iter #   4 total cpu time :  2307.6 secs   av.it.:  11.0
      thresh= 3.688E-06 alpha_mix =  0.700 |ddv_scf|^2 =  2.300E-10

      iter #   5 total cpu time :  2320.1 secs   av.it.:  11.0
      thresh= 1.516E-06 alpha_mix =  0.700 |ddv_scf|^2 =  3.029E-11

      iter #   6 total cpu time :  2326.8 secs   av.it.:  11.0
      thresh= 5.504E-07 alpha_mix =  0.700 |ddv_scf|^2 =  8.651E-13

      iter #   7 total cpu time :  2333.8 secs   av.it.:  11.0
      thresh= 9.301E-08 alpha_mix =  0.700 |ddv_scf|^2 =  4.410E-13

      iter #   8 total cpu time :  2340.1 secs   av.it.:  10.0
      thresh= 6.641E-08 alpha_mix =  0.700 |ddv_scf|^2 =  2.348E-14

      iter #   9 total cpu time :  2347.4 secs   av.it.:  10.0
      thresh= 1.532E-08 alpha_mix =  0.700 |ddv_scf|^2 =  1.661E-15

     End of self-consistent calculation

     Convergence has been achieved 


     Representation #  6 mode #   6

     Self-consistent Calculation

      iter #   1 total cpu time :  2353.3 secs   av.it.:   4.0
      thresh= 1.000E-02 alpha_mix =  0.700 |ddv_scf|^2 =  3.347E-08

      iter #   2 total cpu time :  2361.4 secs   av.it.:  11.0
      thresh= 1.829E-05 alpha_mix =  0.700 |ddv_scf|^2 =  3.702E-08

      iter #   3 total cpu time :  2368.3 secs   av.it.:  10.0
      thresh= 1.924E-05 alpha_mix =  0.700 |ddv_scf|^2 =  2.622E-08

      iter #   4 total cpu time :  2376.2 secs   av.it.:   9.0
      thresh= 1.619E-05 alpha_mix =  0.700 |ddv_scf|^2 =  7.243E-11

      iter #   5 total cpu time :  2386.6 secs   av.it.:  11.0
      thresh= 8.510E-07 alpha_mix =  0.700 |ddv_scf|^2 =  4.985E-12

      iter #   6 total cpu time :  2395.8 secs   av.it.:  11.0
      thresh= 2.233E-07 alpha_mix =  0.700 |ddv_scf|^2 =  1.170E-12

      iter #   7 total cpu time :  2403.3 secs   av.it.:  11.0
      thresh= 1.082E-07 alpha_mix =  0.700 |ddv_scf|^2 =  3.752E-14

      iter #   8 total cpu time :  2409.5 secs   av.it.:  11.0
      thresh= 1.937E-08 alpha_mix =  0.700 |ddv_scf|^2 =  2.381E-14

      iter #   9 total cpu time :  2417.4 secs   av.it.:  10.0
      thresh= 1.543E-08 alpha_mix =  0.700 |ddv_scf|^2 =  1.555E-14

      iter #  10 total cpu time :  2424.2 secs   av.it.:  10.0
      thresh= 1.247E-08 alpha_mix =  0.700 |ddv_scf|^2 =  5.703E-17

     End of self-consistent calculation

     Convergence has been achieved 


     Representation #  7 mode #   7

     Self-consistent Calculation

      iter #   1 total cpu time :  2429.7 secs   av.it.:   6.0
      thresh= 1.000E-02 alpha_mix =  0.700 |ddv_scf|^2 =  1.668E-06

      iter #   2 total cpu time :  2437.5 secs   av.it.:  11.0
      thresh= 1.292E-04 alpha_mix =  0.700 |ddv_scf|^2 =  5.233E-06

      iter #   3 total cpu time :  2444.9 secs   av.it.:   9.0
      thresh= 2.288E-04 alpha_mix =  0.700 |ddv_scf|^2 =  1.022E-07

      iter #   4 total cpu time :  2454.5 secs   av.it.:  10.0
      thresh= 3.197E-05 alpha_mix =  0.700 |ddv_scf|^2 =  1.666E-09

      iter #   5 total cpu time :  2462.4 secs   av.it.:  11.0
      thresh= 4.082E-06 alpha_mix =  0.700 |ddv_scf|^2 =  1.441E-10

      iter #   6 total cpu time :  2472.3 secs   av.it.:  10.0
      thresh= 1.200E-06 alpha_mix =  0.700 |ddv_scf|^2 =  4.888E-12

      iter #   7 total cpu time :  2480.8 secs   av.it.:  10.5
      thresh= 2.211E-07 alpha_mix =  0.700 |ddv_scf|^2 =  3.176E-13

      iter #   8 total cpu time :  2490.0 secs   av.it.:  10.5
      thresh= 5.636E-08 alpha_mix =  0.700 |ddv_scf|^2 =  2.115E-14

      iter #   9 total cpu time :  2507.1 secs   av.it.:  10.0
      thresh= 1.454E-08 alpha_mix =  0.700 |ddv_scf|^2 =  2.194E-16

     End of self-consistent calculation

     Convergence has been achieved 


     Representation #  8 mode #   8

     Self-consistent Calculation

      iter #   1 total cpu time :  2516.2 secs   av.it.:   5.0
      thresh= 1.000E-02 alpha_mix =  0.700 |ddv_scf|^2 =  4.479E-07

      iter #   2 total cpu time :  2532.4 secs   av.it.:  11.0
      thresh= 6.692E-05 alpha_mix =  0.700 |ddv_scf|^2 =  2.401E-06

      iter #   3 total cpu time :  2548.8 secs   av.it.:   9.0
      thresh= 1.549E-04 alpha_mix =  0.700 |ddv_scf|^2 =  1.667E-08

      iter #   4 total cpu time :  2571.6 secs   av.it.:  11.0
      thresh= 1.291E-05 alpha_mix =  0.700 |ddv_scf|^2 =  7.323E-10

      iter #   5 total cpu time :  2582.8 secs   av.it.:  11.0
      thresh= 2.706E-06 alpha_mix =  0.700 |ddv_scf|^2 =  1.500E-11

      iter #   6 total cpu time :  2595.4 secs   av.it.:  10.5
      thresh= 3.873E-07 alpha_mix =  0.700 |ddv_scf|^2 =  1.841E-12

      iter #   7 total cpu time :  2606.2 secs   av.it.:  10.5
      thresh= 1.357E-07 alpha_mix =  0.700 |ddv_scf|^2 =  4.205E-13

      iter #   8 total cpu time :  2621.1 secs   av.it.:  10.5
      thresh= 6.484E-08 alpha_mix =  0.700 |ddv_scf|^2 =  1.196E-14

      iter #   9 total cpu time :  2640.3 secs   av.it.:  10.5
      thresh= 1.094E-08 alpha_mix =  0.700 |ddv_scf|^2 =  2.334E-17

     End of self-consistent calculation

     Convergence has been achieved 


     Representation #  9 mode #   9

     Self-consistent Calculation

      iter #   1 total cpu time :  2655.2 secs   av.it.:   5.0
      thresh= 1.000E-02 alpha_mix =  0.700 |ddv_scf|^2 =  7.527E-08

      iter #   2 total cpu time :  2673.7 secs   av.it.:  11.5
      thresh= 2.743E-05 alpha_mix =  0.700 |ddv_scf|^2 =  6.605E-08

      iter #   3 total cpu time :  2698.3 secs   av.it.:  11.0
      thresh= 2.570E-05 alpha_mix =  0.700 |ddv_scf|^2 =  7.909E-10

      iter #   4 total cpu time :  2713.1 secs   av.it.:  11.0
      thresh= 2.812E-06 alpha_mix =  0.700 |ddv_scf|^2 =  9.575E-11

      iter #   5 total cpu time :  2727.7 secs   av.it.:  11.0
      thresh= 9.785E-07 alpha_mix =  0.700 |ddv_scf|^2 =  2.687E-12

      iter #   6 total cpu time :  2743.0 secs   av.it.:  11.0
      thresh= 1.639E-07 alpha_mix =  0.700 |ddv_scf|^2 =  2.263E-13

      iter #   7 total cpu time :  2765.1 secs   av.it.:  11.0
      thresh= 4.757E-08 alpha_mix =  0.700 |ddv_scf|^2 =  5.513E-15

     End of self-consistent calculation

     Convergence has been achieved 


     Representation # 10 mode #  10

     Self-consistent Calculation

      iter #   1 total cpu time :  2778.6 secs   av.it.:   4.0
      thresh= 1.000E-02 alpha_mix =  0.700 |ddv_scf|^2 =  5.767E-09

      iter #   2 total cpu time :  2798.9 secs   av.it.:  11.5
      thresh= 7.594E-06 alpha_mix =  0.700 |ddv_scf|^2 =  5.612E-09

      iter #   3 total cpu time :  2809.7 secs   av.it.:  11.0
      thresh= 7.491E-06 alpha_mix =  0.700 |ddv_scf|^2 =  4.627E-11

      iter #   4 total cpu time :  2821.6 secs   av.it.:  11.0
      thresh= 6.802E-07 alpha_mix =  0.700 |ddv_scf|^2 =  1.108E-11

      iter #   5 total cpu time :  2836.2 secs   av.it.:  11.0
      thresh= 3.328E-07 alpha_mix =  0.700 |ddv_scf|^2 =  1.466E-13

      iter #   6 total cpu time :  2849.9 secs   av.it.:  11.0
      thresh= 3.829E-08 alpha_mix =  0.700 |ddv_scf|^2 =  1.440E-14

      iter #   7 total cpu time :  2876.3 secs   av.it.:  11.0
      thresh= 1.200E-08 alpha_mix =  0.700 |ddv_scf|^2 =  8.107E-16

     End of self-consistent calculation

     Convergence has been achieved 


     Representation # 11 mode #  11

     Self-consistent Calculation

      iter #   1 total cpu time :  2893.8 secs   av.it.:   5.0
      thresh= 1.000E-02 alpha_mix =  0.700 |ddv_scf|^2 =  1.300E-07

      iter #   2 total cpu time :  2910.9 secs   av.it.:  11.5
      thresh= 3.606E-05 alpha_mix =  0.700 |ddv_scf|^2 =  1.167E-07

      iter #   3 total cpu time :  2935.8 secs   av.it.:  11.0
      thresh= 3.416E-05 alpha_mix =  0.700 |ddv_scf|^2 =  7.408E-10

      iter #   4 total cpu time :  2952.0 secs   av.it.:  10.5
      thresh= 2.722E-06 alpha_mix =  0.700 |ddv_scf|^2 =  1.514E-10

      iter #   5 total cpu time :  2972.2 secs   av.it.:  11.0
      thresh= 1.231E-06 alpha_mix =  0.700 |ddv_scf|^2 =  1.809E-12

      iter #   6 total cpu time :  3005.8 secs   av.it.:  11.0
      thresh= 1.345E-07 alpha_mix =  0.700 |ddv_scf|^2 =  9.205E-14

      iter #   7 total cpu time :  3031.5 secs   av.it.:  11.0
      thresh= 3.034E-08 alpha_mix =  0.700 |ddv_scf|^2 =  7.075E-15

     End of self-consistent calculation

     Convergence has been achieved 


     Representation # 12 mode #  12

     Self-consistent Calculation

      iter #   1 total cpu time :  3046.1 secs   av.it.:   4.0
      thresh= 1.000E-02 alpha_mix =  0.700 |ddv_scf|^2 =  4.532E-09

      iter #   2 total cpu time :  3064.7 secs   av.it.:  11.5
      thresh= 6.732E-06 alpha_mix =  0.700 |ddv_scf|^2 =  4.945E-09

      iter #   3 total cpu time :  3088.6 secs   av.it.:  11.0
      thresh= 7.032E-06 alpha_mix =  0.700 |ddv_scf|^2 =  2.793E-11

      iter #   4 total cpu time :  3128.8 secs   av.it.:  11.5
      thresh= 5.285E-07 alpha_mix =  0.700 |ddv_scf|^2 =  1.179E-11

      iter #   5 total cpu time :  3150.9 secs   av.it.:  11.0
      thresh= 3.434E-07 alpha_mix =  0.700 |ddv_scf|^2 =  8.492E-14

      iter #   6 total cpu time :  3170.5 secs   av.it.:  11.0
      thresh= 2.914E-08 alpha_mix =  0.700 |ddv_scf|^2 =  1.727E-14

      iter #   7 total cpu time :  3205.2 secs   av.it.:  11.0
      thresh= 1.314E-08 alpha_mix =  0.700 |ddv_scf|^2 =  9.934E-16

     End of self-consistent calculation

     Convergence has been achieved 


     Representation # 13 mode #  13

     Self-consistent Calculation

      iter #   1 total cpu time :  3238.7 secs   av.it.:   5.0
      thresh= 1.000E-02 alpha_mix =  0.700 |ddv_scf|^2 =  7.825E-08

      iter #   2 total cpu time :  3265.4 secs   av.it.:  11.5
      thresh= 2.797E-05 alpha_mix =  0.700 |ddv_scf|^2 =  5.739E-08

      iter #   3 total cpu time :  3299.8 secs   av.it.:  11.0
      thresh= 2.396E-05 alpha_mix =  0.700 |ddv_scf|^2 =  2.657E-10

      iter #   4 total cpu time :  3329.5 secs   av.it.:  11.0
      thresh= 1.630E-06 alpha_mix =  0.700 |ddv_scf|^2 =  2.707E-11

      iter #   5 total cpu time :  3352.0 secs   av.it.:  11.5
      thresh= 5.203E-07 alpha_mix =  0.700 |ddv_scf|^2 =  2.367E-12

      iter #   6 total cpu time :  3380.0 secs   av.it.:  11.0
      thresh= 1.539E-07 alpha_mix =  0.700 |ddv_scf|^2 =  2.216E-13

      iter #   7 total cpu time :  3419.2 secs   av.it.:  10.5
      thresh= 4.708E-08 alpha_mix =  0.700 |ddv_scf|^2 =  7.059E-15

     End of self-consistent calculation

     Convergence has been achieved 


     Representation # 14 mode #  14

     Self-consistent Calculation

      iter #   1 total cpu time :  3450.0 secs   av.it.:   5.0
      thresh= 1.000E-02 alpha_mix =  0.700 |ddv_scf|^2 =  6.292E-08

      iter #   2 total cpu time :  3487.3 secs   av.it.:  11.5
      thresh= 2.508E-05 alpha_mix =  0.700 |ddv_scf|^2 =  5.552E-08

      iter #   3 total cpu time :  3525.3 secs   av.it.:  11.0
      thresh= 2.356E-05 alpha_mix =  0.700 |ddv_scf|^2 =  4.673E-10

      iter #   4 total cpu time :  3549.8 secs   av.it.:  11.0
      thresh= 2.162E-06 alpha_mix =  0.700 |ddv_scf|^2 =  5.919E-11

      iter #   5 total cpu time :  3579.3 secs   av.it.:  11.0
      thresh= 7.693E-07 alpha_mix =  0.700 |ddv_scf|^2 =  4.040E-12

      iter #   6 total cpu time :  3612.2 secs   av.it.:  11.0
      thresh= 2.010E-07 alpha_mix =  0.700 |ddv_scf|^2 =  3.741E-13

      iter #   7 total cpu time :  3651.8 secs   av.it.:  11.0
      thresh= 6.117E-08 alpha_mix =  0.700 |ddv_scf|^2 =  7.992E-15

     End of self-consistent calculation

     Convergence has been achieved 


     Representation # 15 mode #  15

     Self-consistent Calculation

      iter #   1 total cpu time :  3678.5 secs   av.it.:   5.0
      thresh= 1.000E-02 alpha_mix =  0.700 |ddv_scf|^2 =  7.272E-08

      iter #   2 total cpu time :  3697.3 secs   av.it.:  11.5
      thresh= 2.697E-05 alpha_mix =  0.700 |ddv_scf|^2 =  7.376E-08

      iter #   3 total cpu time :  3716.1 secs   av.it.:  10.5
      thresh= 2.716E-05 alpha_mix =  0.700 |ddv_scf|^2 =  3.180E-10

      iter #   4 total cpu time :  3738.6 secs   av.it.:  11.5
      thresh= 1.783E-06 alpha_mix =  0.700 |ddv_scf|^2 =  7.039E-11

      iter #   5 total cpu time :  3763.4 secs   av.it.:  11.0
      thresh= 8.390E-07 alpha_mix =  0.700 |ddv_scf|^2 =  1.216E-12

      iter #   6 total cpu time :  3790.6 secs   av.it.:  11.0
      thresh= 1.102E-07 alpha_mix =  0.700 |ddv_scf|^2 =  2.078E-14

      iter #   7 total cpu time :  3817.5 secs   av.it.:  11.5
      thresh= 1.441E-08 alpha_mix =  0.700 |ddv_scf|^2 =  7.656E-15

     End of self-consistent calculation

     Convergence has been achieved 


     Representation # 16 mode #  16

     Self-consistent Calculation

      iter #   1 total cpu time :  3836.0 secs   av.it.:   5.0
      thresh= 1.000E-02 alpha_mix =  0.700 |ddv_scf|^2 =  8.394E-08

      iter #   2 total cpu time :  3860.9 secs   av.it.:  11.5
      thresh= 2.897E-05 alpha_mix =  0.700 |ddv_scf|^2 =  9.281E-08

      iter #   3 total cpu time :  3883.6 secs   av.it.:  10.5
      thresh= 3.046E-05 alpha_mix =  0.700 |ddv_scf|^2 =  2.508E-10

      iter #   4 total cpu time :  3901.5 secs   av.it.:  11.0
      thresh= 1.584E-06 alpha_mix =  0.700 |ddv_scf|^2 =  4.103E-11

      iter #   5 total cpu time :  3922.5 secs   av.it.:  11.0
      thresh= 6.405E-07 alpha_mix =  0.700 |ddv_scf|^2 =  3.178E-12

      iter #   6 total cpu time :  3936.8 secs   av.it.:  11.0
      thresh= 1.783E-07 alpha_mix =  0.700 |ddv_scf|^2 =  2.135E-13

      iter #   7 total cpu time :  3952.7 secs   av.it.:  11.0
      thresh= 4.620E-08 alpha_mix =  0.700 |ddv_scf|^2 =  1.154E-14

      iter #   8 total cpu time :  3967.2 secs   av.it.:  11.0
      thresh= 1.074E-08 alpha_mix =  0.700 |ddv_scf|^2 =  3.656E-17

     End of self-consistent calculation

     Convergence has been achieved 


     Representation # 17 mode #  17

     Self-consistent Calculation

      iter #   1 total cpu time :  3976.3 secs   av.it.:   3.5
      thresh= 1.000E-02 alpha_mix =  0.700 |ddv_scf|^2 =  8.450E-10

      iter #   2 total cpu time :  3990.6 secs   av.it.:  11.5
      thresh= 2.907E-06 alpha_mix =  0.700 |ddv_scf|^2 =  1.651E-11

      iter #   3 total cpu time :  4002.3 secs   av.it.:  11.5
      thresh= 4.064E-07 alpha_mix =  0.700 |ddv_scf|^2 =  9.168E-13

      iter #   4 total cpu time :  4017.2 secs   av.it.:  11.0
      thresh= 9.575E-08 alpha_mix =  0.700 |ddv_scf|^2 =  1.349E-14

      iter #   5 total cpu time :  4042.0 secs   av.it.:  11.0
      thresh= 1.161E-08 alpha_mix =  0.700 |ddv_scf|^2 =  2.530E-16

     End of self-consistent calculation

     Convergence has been achieved 


     Representation # 18 mode #  18

     Self-consistent Calculation

      iter #   1 total cpu time :  4062.6 secs   av.it.:   5.0
      thresh= 1.000E-02 alpha_mix =  0.700 |ddv_scf|^2 =  7.008E-09

      iter #   2 total cpu time :  4092.7 secs   av.it.:  11.5
      thresh= 8.371E-06 alpha_mix =  0.700 |ddv_scf|^2 =  1.131E-10

      iter #   3 total cpu time :  4119.3 secs   av.it.:  11.0
      thresh= 1.063E-06 alpha_mix =  0.700 |ddv_scf|^2 =  9.899E-12

      iter #   4 total cpu time :  4136.7 secs   av.it.:  10.5
      thresh= 3.146E-07 alpha_mix =  0.700 |ddv_scf|^2 =  9.453E-14

      iter #   5 total cpu time :  4151.0 secs   av.it.:  11.0
      thresh= 3.075E-08 alpha_mix =  0.700 |ddv_scf|^2 =  4.662E-16

     End of self-consistent calculation

     Convergence has been achieved 


     Representation # 19 mode #  19

     Self-consistent Calculation

      iter #   1 total cpu time :  4165.9 secs   av.it.:   5.0
      thresh= 1.000E-02 alpha_mix =  0.700 |ddv_scf|^2 =  1.693E-08

      iter #   2 total cpu time :  4181.7 secs   av.it.:  11.5
      thresh= 1.301E-05 alpha_mix =  0.700 |ddv_scf|^2 =  1.881E-10

      iter #   3 total cpu time :  4193.4 secs   av.it.:  11.5
      thresh= 1.371E-06 alpha_mix =  0.700 |ddv_scf|^2 =  1.232E-11

      iter #   4 total cpu time :  4202.1 secs   av.it.:  10.5
      thresh= 3.511E-07 alpha_mix =  0.700 |ddv_scf|^2 =  8.372E-14

      iter #   5 total cpu time :  4212.9 secs   av.it.:  10.5
      thresh= 2.893E-08 alpha_mix =  0.700 |ddv_scf|^2 =  4.763E-16

     End of self-consistent calculation

     Convergence has been achieved 


     Representation # 20 mode #  20

     Self-consistent Calculation

      iter #   1 total cpu time :  4218.9 secs   av.it.:   5.0
      thresh= 1.000E-02 alpha_mix =  0.700 |ddv_scf|^2 =  1.574E-08

      iter #   2 total cpu time :  4227.6 secs   av.it.:  11.5
      thresh= 1.255E-05 alpha_mix =  0.700 |ddv_scf|^2 =  1.979E-10

      iter #   3 total cpu time :  4233.7 secs   av.it.:  11.0
      thresh= 1.407E-06 alpha_mix =  0.700 |ddv_scf|^2 =  1.342E-11

      iter #   4 total cpu time :  4238.6 secs   av.it.:  10.0
      thresh= 3.663E-07 alpha_mix =  0.700 |ddv_scf|^2 =  6.321E-14

      iter #   5 total cpu time :  4244.5 secs   av.it.:  10.5
      thresh= 2.514E-08 alpha_mix =  0.700 |ddv_scf|^2 =  5.886E-16

     End of self-consistent calculation

     Convergence has been achieved 


     Representation # 21 mode #  21

     Self-consistent Calculation

      iter #   1 total cpu time :  4248.7 secs   av.it.:   4.0
      thresh= 1.000E-02 alpha_mix =  0.700 |ddv_scf|^2 =  1.029E-08

      iter #   2 total cpu time :  4260.2 secs   av.it.:  11.0
      thresh= 1.015E-05 alpha_mix =  0.700 |ddv_scf|^2 =  1.391E-09

      iter #   3 total cpu time :  4276.9 secs   av.it.:  11.0
      thresh= 3.730E-06 alpha_mix =  0.700 |ddv_scf|^2 =  1.779E-11

      iter #   4 total cpu time :  4291.6 secs   av.it.:  11.5
      thresh= 4.218E-07 alpha_mix =  0.700 |ddv_scf|^2 =  3.514E-13

      iter #   5 total cpu time :  4309.5 secs   av.it.:  11.0
      thresh= 5.928E-08 alpha_mix =  0.700 |ddv_scf|^2 =  1.149E-14

      iter #   6 total cpu time :  4328.7 secs   av.it.:  11.0
      thresh= 1.072E-08 alpha_mix =  0.700 |ddv_scf|^2 =  5.504E-17

     End of self-consistent calculation

     Convergence has been achieved 


     Representation # 22 mode #  22

     Self-consistent Calculation

      iter #   1 total cpu time :  4338.1 secs   av.it.:   6.0
      thresh= 1.000E-02 alpha_mix =  0.700 |ddv_scf|^2 =  2.514E-07

      iter #   2 total cpu time :  4346.6 secs   av.it.:  11.5
      thresh= 5.014E-05 alpha_mix =  0.700 |ddv_scf|^2 =  5.457E-08

      iter #   3 total cpu time :  4355.3 secs   av.it.:  10.5
      thresh= 2.336E-05 alpha_mix =  0.700 |ddv_scf|^2 =  4.245E-11

      iter #   4 total cpu time :  4363.4 secs   av.it.:  11.0
      thresh= 6.515E-07 alpha_mix =  0.700 |ddv_scf|^2 =  3.713E-12

      iter #   5 total cpu time :  4371.5 secs   av.it.:  10.5
      thresh= 1.927E-07 alpha_mix =  0.700 |ddv_scf|^2 =  1.696E-14

      iter #   6 total cpu time :  4380.2 secs   av.it.:  11.0
      thresh= 1.302E-08 alpha_mix =  0.700 |ddv_scf|^2 =  7.237E-16

     End of self-consistent calculation

     Convergence has been achieved 


     Representation # 23 mode #  23

     Self-consistent Calculation

      iter #   1 total cpu time :  4388.0 secs   av.it.:   6.0
      thresh= 1.000E-02 alpha_mix =  0.700 |ddv_scf|^2 =  2.989E-07

      iter #   2 total cpu time :  4396.9 secs   av.it.:  11.0
      thresh= 5.467E-05 alpha_mix =  0.700 |ddv_scf|^2 =  6.084E-08

      iter #   3 total cpu time :  4406.9 secs   av.it.:  10.5
      thresh= 2.467E-05 alpha_mix =  0.700 |ddv_scf|^2 =  5.799E-11

      iter #   4 total cpu time :  4416.0 secs   av.it.:  11.0
      thresh= 7.615E-07 alpha_mix =  0.700 |ddv_scf|^2 =  4.621E-12

      iter #   5 total cpu time :  4425.3 secs   av.it.:  10.5
      thresh= 2.150E-07 alpha_mix =  0.700 |ddv_scf|^2 =  2.275E-14

      iter #   6 total cpu time :  4434.5 secs   av.it.:  10.5
      thresh= 1.508E-08 alpha_mix =  0.700 |ddv_scf|^2 =  6.672E-16

     End of self-consistent calculation

     Convergence has been achieved 


     Representation # 24 mode #  24

     Self-consistent Calculation

      iter #   1 total cpu time :  4442.5 secs   av.it.:   5.0
      thresh= 1.000E-02 alpha_mix =  0.700 |ddv_scf|^2 =  6.488E-08

      iter #   2 total cpu time :  4467.5 secs   av.it.:  11.5
      thresh= 2.547E-05 alpha_mix =  0.700 |ddv_scf|^2 =  8.884E-09

      iter #   3 total cpu time :  4494.3 secs   av.it.:  11.0
      thresh= 9.425E-06 alpha_mix =  0.700 |ddv_scf|^2 =  1.037E-10

      iter #   4 total cpu time :  4519.6 secs   av.it.:  11.0
      thresh= 1.019E-06 alpha_mix =  0.700 |ddv_scf|^2 =  3.727E-12

      iter #   5 total cpu time :  4533.3 secs   av.it.:  10.5
      thresh= 1.931E-07 alpha_mix =  0.700 |ddv_scf|^2 =  2.511E-14

      iter #   6 total cpu time :  4543.8 secs   av.it.:  11.0
      thresh= 1.585E-08 alpha_mix =  0.700 |ddv_scf|^2 =  3.845E-16

     End of self-consistent calculation

     Convergence has been achieved 


     Representation # 25 mode #  25

     Self-consistent Calculation

      iter #   1 total cpu time :  4551.4 secs   av.it.:   5.0
      thresh= 1.000E-02 alpha_mix =  0.700 |ddv_scf|^2 =  1.583E-08

      iter #   2 total cpu time :  4562.1 secs   av.it.:  11.5
      thresh= 1.258E-05 alpha_mix =  0.700 |ddv_scf|^2 =  2.125E-10

      iter #   3 total cpu time :  4575.5 secs   av.it.:  11.0
      thresh= 1.458E-06 alpha_mix =  0.700 |ddv_scf|^2 =  1.386E-11

      iter #   4 total cpu time :  4586.8 secs   av.it.:  10.5
      thresh= 3.724E-07 alpha_mix =  0.700 |ddv_scf|^2 =  1.836E-13

      iter #   5 total cpu time :  4596.5 secs   av.it.:  11.0
      thresh= 4.285E-08 alpha_mix =  0.700 |ddv_scf|^2 =  7.919E-16

     End of self-consistent calculation

     Convergence has been achieved 


     Representation # 26 mode #  26

     Self-consistent Calculation

      iter #   1 total cpu time :  4609.0 secs   av.it.:   5.0
      thresh= 1.000E-02 alpha_mix =  0.700 |ddv_scf|^2 =  1.869E-08

      iter #   2 total cpu time :  4620.4 secs   av.it.:  11.5
      thresh= 1.367E-05 alpha_mix =  0.700 |ddv_scf|^2 =  3.089E-10

      iter #   3 total cpu time :  4633.8 secs   av.it.:  11.5
      thresh= 1.757E-06 alpha_mix =  0.700 |ddv_scf|^2 =  1.374E-11

      iter #   4 total cpu time :  4644.2 secs   av.it.:  10.5
      thresh= 3.707E-07 alpha_mix =  0.700 |ddv_scf|^2 =  2.459E-13

      iter #   5 total cpu time :  4664.6 secs   av.it.:  10.5
      thresh= 4.959E-08 alpha_mix =  0.700 |ddv_scf|^2 =  5.499E-16

     End of self-consistent calculation

     Convergence has been achieved 


     Representation # 27 mode #  27

     Self-consistent Calculation

      iter #   1 total cpu time :  4687.0 secs   av.it.:   5.0
      thresh= 1.000E-02 alpha_mix =  0.700 |ddv_scf|^2 =  2.777E-08

      iter #   2 total cpu time :  4707.3 secs   av.it.:  11.5
      thresh= 1.666E-05 alpha_mix =  0.700 |ddv_scf|^2 =  4.275E-10

      iter #   3 total cpu time :  4728.9 secs   av.it.:  11.5
      thresh= 2.068E-06 alpha_mix =  0.700 |ddv_scf|^2 =  1.421E-11

      iter #   4 total cpu time :  4744.0 secs   av.it.:  10.5
      thresh= 3.769E-07 alpha_mix =  0.700 |ddv_scf|^2 =  2.105E-13

      iter #   5 total cpu time :  4752.8 secs   av.it.:  11.0
      thresh= 4.588E-08 alpha_mix =  0.700 |ddv_scf|^2 =  6.138E-16

     End of self-consistent calculation

     Convergence has been achieved 


     Representation # 28 mode #  28

     Self-consistent Calculation

      iter #   1 total cpu time :  4759.6 secs   av.it.:   3.5
      thresh= 1.000E-02 alpha_mix =  0.700 |ddv_scf|^2 =  8.487E-10

      iter #   2 total cpu time :  4772.5 secs   av.it.:  11.5
      thresh= 2.913E-06 alpha_mix =  0.700 |ddv_scf|^2 =  1.648E-11

      iter #   3 total cpu time :  4784.7 secs   av.it.:  11.5
      thresh= 4.059E-07 alpha_mix =  0.700 |ddv_scf|^2 =  9.444E-13

      iter #   4 total cpu time :  4796.4 secs   av.it.:  11.5
      thresh= 9.718E-08 alpha_mix =  0.700 |ddv_scf|^2 =  1.583E-14

      iter #   5 total cpu time :  4809.0 secs   av.it.:  11.0
      thresh= 1.258E-08 alpha_mix =  0.700 |ddv_scf|^2 =  3.955E-16

     End of self-consistent calculation

     Convergence has been achieved 


     Representation # 29 mode #  29

     Self-consistent Calculation

      iter #   1 total cpu time :  4817.7 secs   av.it.:   6.0
      thresh= 1.000E-02 alpha_mix =  0.700 |ddv_scf|^2 =  7.470E-07

      iter #   2 total cpu time :  4828.1 secs   av.it.:  11.0
      thresh= 8.643E-05 alpha_mix =  0.700 |ddv_scf|^2 =  3.401E-07

      iter #   3 total cpu time :  4839.2 secs   av.it.:  10.0
      thresh= 5.832E-05 alpha_mix =  0.700 |ddv_scf|^2 =  3.617E-10

      iter #   4 total cpu time :  4853.8 secs   av.it.:  11.0
      thresh= 1.902E-06 alpha_mix =  0.700 |ddv_scf|^2 =  1.090E-11

      iter #   5 total cpu time :  4870.1 secs   av.it.:  10.0
      thresh= 3.302E-07 alpha_mix =  0.700 |ddv_scf|^2 =  1.229E-13

      iter #   6 total cpu time :  4886.0 secs   av.it.:  11.0
      thresh= 3.506E-08 alpha_mix =  0.700 |ddv_scf|^2 =  9.804E-15

     End of self-consistent calculation

     Convergence has been achieved 


     Representation # 30 mode #  30

     Self-consistent Calculation

      iter #   1 total cpu time :  4905.5 secs   av.it.:   4.0
      thresh= 1.000E-02 alpha_mix =  0.700 |ddv_scf|^2 =  1.365E-08

      iter #   2 total cpu time :  4939.5 secs   av.it.:  11.0
      thresh= 1.168E-05 alpha_mix =  0.700 |ddv_scf|^2 =  3.019E-09

      iter #   3 total cpu time :  4955.8 secs   av.it.:  10.5
      thresh= 5.495E-06 alpha_mix =  0.700 |ddv_scf|^2 =  8.369E-11

      iter #   4 total cpu time :  4968.8 secs   av.it.:  11.0
      thresh= 9.148E-07 alpha_mix =  0.700 |ddv_scf|^2 =  1.740E-12

      iter #   5 total cpu time :  4978.3 secs   av.it.:  11.0
      thresh= 1.319E-07 alpha_mix =  0.700 |ddv_scf|^2 =  3.816E-14

      iter #   6 total cpu time :  4986.5 secs   av.it.:  11.0
      thresh= 1.953E-08 alpha_mix =  0.700 |ddv_scf|^2 =  6.107E-16

     End of self-consistent calculation

     Convergence has been achieved 


     Representation # 31 mode #  31

     Self-consistent Calculation

      iter #   1 total cpu time :  4993.2 secs   av.it.:   6.0
      thresh= 1.000E-02 alpha_mix =  0.700 |ddv_scf|^2 =  4.067E-07

      iter #   2 total cpu time :  5002.2 secs   av.it.:  11.0
      thresh= 6.378E-05 alpha_mix =  0.700 |ddv_scf|^2 =  1.466E-07

      iter #   3 total cpu time :  5010.7 secs   av.it.:  10.0
      thresh= 3.829E-05 alpha_mix =  0.700 |ddv_scf|^2 =  6.982E-10

      iter #   4 total cpu time :  5018.4 secs   av.it.:  11.0
      thresh= 2.642E-06 alpha_mix =  0.700 |ddv_scf|^2 =  1.198E-11

      iter #   5 total cpu time :  5025.7 secs   av.it.:  11.0
      thresh= 3.461E-07 alpha_mix =  0.700 |ddv_scf|^2 =  1.574E-13

      iter #   6 total cpu time :  5033.3 secs   av.it.:  11.0
      thresh= 3.967E-08 alpha_mix =  0.700 |ddv_scf|^2 =  8.200E-15

     End of self-consistent calculation

     Convergence has been achieved 


     Representation # 32 mode #  32

     Self-consistent Calculation

      iter #   1 total cpu time :  5040.4 secs   av.it.:   6.0
      thresh= 1.000E-02 alpha_mix =  0.700 |ddv_scf|^2 =  5.405E-07

      iter #   2 total cpu time :  5052.3 secs   av.it.:  11.0
      thresh= 7.352E-05 alpha_mix =  0.700 |ddv_scf|^2 =  2.586E-07

      iter #   3 total cpu time :  5060.1 secs   av.it.:  10.0
      thresh= 5.085E-05 alpha_mix =  0.700 |ddv_scf|^2 =  7.428E-11

      iter #   4 total cpu time :  5070.9 secs   av.it.:  11.0
      thresh= 8.619E-07 alpha_mix =  0.700 |ddv_scf|^2 =  6.976E-12

      iter #   5 total cpu time :  5091.6 secs   av.it.:  11.0
      thresh= 2.641E-07 alpha_mix =  0.700 |ddv_scf|^2 =  2.919E-13

      iter #   6 total cpu time :  5109.5 secs   av.it.:  11.0
      thresh= 5.403E-08 alpha_mix =  0.700 |ddv_scf|^2 =  7.317E-15

     End of self-consistent calculation

     Convergence has been achieved 


     Representation # 33 mode #  33

     Self-consistent Calculation

      iter #   1 total cpu time :  5126.0 secs   av.it.:   6.0
      thresh= 1.000E-02 alpha_mix =  0.700 |ddv_scf|^2 =  6.817E-07

      iter #   2 total cpu time :  5136.1 secs   av.it.:  11.5
      thresh= 8.256E-05 alpha_mix =  0.700 |ddv_scf|^2 =  4.619E-06

      iter #   3 total cpu time :  5142.3 secs   av.it.:   9.0
      thresh= 2.149E-04 alpha_mix =  0.700 |ddv_scf|^2 =  5.444E-08

      iter #   4 total cpu time :  5149.2 secs   av.it.:  11.0
      thresh= 2.333E-05 alpha_mix =  0.700 |ddv_scf|^2 =  2.038E-09

      iter #   5 total cpu time :  5156.1 secs   av.it.:  11.0
      thresh= 4.514E-06 alpha_mix =  0.700 |ddv_scf|^2 =  1.863E-11

      iter #   6 total cpu time :  5162.7 secs   av.it.:  11.0
      thresh= 4.316E-07 alpha_mix =  0.700 |ddv_scf|^2 =  1.335E-11

      iter #   7 total cpu time :  5168.7 secs   av.it.:  10.5
      thresh= 3.654E-07 alpha_mix =  0.700 |ddv_scf|^2 =  8.087E-13

      iter #   8 total cpu time :  5174.9 secs   av.it.:  11.0
      thresh= 8.993E-08 alpha_mix =  0.700 |ddv_scf|^2 =  4.798E-13

      iter #   9 total cpu time :  5180.3 secs   av.it.:   9.5
      thresh= 6.927E-08 alpha_mix =  0.700 |ddv_scf|^2 =  1.303E-14

      iter #  10 total cpu time :  5186.2 secs   av.it.:  11.0
      thresh= 1.141E-08 alpha_mix =  0.700 |ddv_scf|^2 =  1.522E-14

      iter #  11 total cpu time :  5193.2 secs   av.it.:  10.5
      thresh= 1.234E-08 alpha_mix =  0.700 |ddv_scf|^2 =  2.731E-16

     End of self-consistent calculation

     Convergence has been achieved 


     Representation # 34 mode #  34

     Self-consistent Calculation

      iter #   1 total cpu time :  5197.9 secs   av.it.:   4.0
      thresh= 1.000E-02 alpha_mix =  0.700 |ddv_scf|^2 =  7.306E-08

      iter #   2 total cpu time :  5204.0 secs   av.it.:  10.5
      thresh= 2.703E-05 alpha_mix =  0.700 |ddv_scf|^2 =  6.992E-07

      iter #   3 total cpu time :  5210.6 secs   av.it.:   9.0
      thresh= 8.362E-05 alpha_mix =  0.700 |ddv_scf|^2 =  8.020E-09

      iter #   4 total cpu time :  5216.3 secs   av.it.:  10.0
      thresh= 8.955E-06 alpha_mix =  0.700 |ddv_scf|^2 =  1.267E-09

      iter #   5 total cpu time :  5222.7 secs   av.it.:  10.0
      thresh= 3.559E-06 alpha_mix =  0.700 |ddv_scf|^2 =  8.727E-12

      iter #   6 total cpu time :  5229.6 secs   av.it.:  11.0
      thresh= 2.954E-07 alpha_mix =  0.700 |ddv_scf|^2 =  1.009E-11

      iter #   7 total cpu time :  5238.0 secs   av.it.:  10.0
      thresh= 3.177E-07 alpha_mix =  0.700 |ddv_scf|^2 =  5.582E-13

      iter #   8 total cpu time :  5259.3 secs   av.it.:  10.0
      thresh= 7.472E-08 alpha_mix =  0.700 |ddv_scf|^2 =  1.962E-14

      iter #   9 total cpu time :  5280.8 secs   av.it.:  10.0
      thresh= 1.401E-08 alpha_mix =  0.700 |ddv_scf|^2 =  1.856E-16

     End of self-consistent calculation

     Convergence has been achieved 


     Representation # 35 mode #  35

     Self-consistent Calculation

      iter #   1 total cpu time :  5302.2 secs   av.it.:   5.5
      thresh= 1.000E-02 alpha_mix =  0.700 |ddv_scf|^2 =  2.224E-07

      iter #   2 total cpu time :  5319.3 secs   av.it.:  11.5
      thresh= 4.716E-05 alpha_mix =  0.700 |ddv_scf|^2 =  5.143E-07

      iter #   3 total cpu time :  5331.2 secs   av.it.:  10.0
      thresh= 7.171E-05 alpha_mix =  0.700 |ddv_scf|^2 =  6.930E-08

      iter #   4 total cpu time :  5338.6 secs   av.it.:  10.0
      thresh= 2.632E-05 alpha_mix =  0.700 |ddv_scf|^2 =  7.134E-09

      iter #   5 total cpu time :  5348.0 secs   av.it.:  10.0
      thresh= 8.446E-06 alpha_mix =  0.700 |ddv_scf|^2 =  1.116E-10

      iter #   6 total cpu time :  5357.3 secs   av.it.:  11.0
      thresh= 1.056E-06 alpha_mix =  0.700 |ddv_scf|^2 =  4.820E-11

      iter #   7 total cpu time :  5369.1 secs   av.it.:  10.0
      thresh= 6.942E-07 alpha_mix =  0.700 |ddv_scf|^2 =  2.462E-12

      iter #   8 total cpu time :  5378.8 secs   av.it.:  10.0
      thresh= 1.569E-07 alpha_mix =  0.700 |ddv_scf|^2 =  1.314E-13

      iter #   9 total cpu time :  5388.4 secs   av.it.:  10.5
      thresh= 3.625E-08 alpha_mix =  0.700 |ddv_scf|^2 =  8.942E-16

     End of self-consistent calculation

     Convergence has been achieved 


     Representation # 36 mode #  36

     Self-consistent Calculation

      iter #   1 total cpu time :  5395.1 secs   av.it.:   6.0
      thresh= 1.000E-02 alpha_mix =  0.700 |ddv_scf|^2 =  2.755E-06

      iter #   2 total cpu time :  5402.7 secs   av.it.:  10.5
      thresh= 1.660E-04 alpha_mix =  0.700 |ddv_scf|^2 =  2.029E-05

      iter #   3 total cpu time :  5409.0 secs   av.it.:   9.0
      thresh= 4.504E-04 alpha_mix =  0.700 |ddv_scf|^2 =  4.804E-08

      iter #   4 total cpu time :  5416.8 secs   av.it.:  11.0
      thresh= 2.192E-05 alpha_mix =  0.700 |ddv_scf|^2 =  2.531E-09

      iter #   5 total cpu time :  5423.6 secs   av.it.:  11.0
      thresh= 5.031E-06 alpha_mix =  0.700 |ddv_scf|^2 =  1.207E-11

      iter #   6 total cpu time :  5435.1 secs   av.it.:  11.0
      thresh= 3.474E-07 alpha_mix =  0.700 |ddv_scf|^2 =  1.140E-12

      iter #   7 total cpu time :  5451.7 secs   av.it.:  11.5
      thresh= 1.068E-07 alpha_mix =  0.700 |ddv_scf|^2 =  9.598E-13

      iter #   8 total cpu time :  5465.4 secs   av.it.:  10.5
      thresh= 9.797E-08 alpha_mix =  0.700 |ddv_scf|^2 =  1.433E-12

      iter #   9 total cpu time :  5476.2 secs   av.it.:   9.0
      thresh= 1.197E-07 alpha_mix =  0.700 |ddv_scf|^2 =  7.224E-15

     End of self-consistent calculation

     Convergence has been achieved 


     Representation # 37 mode #  37

     Self-consistent Calculation

      iter #   1 total cpu time :  5494.4 secs   av.it.:   6.0
      thresh= 1.000E-02 alpha_mix =  0.700 |ddv_scf|^2 =  5.688E-07

      iter #   2 total cpu time :  5507.4 secs   av.it.:  11.0
      thresh= 7.542E-05 alpha_mix =  0.700 |ddv_scf|^2 =  3.124E-06

      iter #   3 total cpu time :  5516.5 secs   av.it.:   9.0
      thresh= 1.768E-04 alpha_mix =  0.700 |ddv_scf|^2 =  5.824E-08

      iter #   4 total cpu time :  5528.0 secs   av.it.:  10.5
      thresh= 2.413E-05 alpha_mix =  0.700 |ddv_scf|^2 =  1.398E-08

      iter #   5 total cpu time :  5538.8 secs   av.it.:  10.0
      thresh= 1.183E-05 alpha_mix =  0.700 |ddv_scf|^2 =  3.139E-10

      iter #   6 total cpu time :  5547.3 secs   av.it.:   9.5
      thresh= 1.772E-06 alpha_mix =  0.700 |ddv_scf|^2 =  2.955E-12

      iter #   7 total cpu time :  5557.6 secs   av.it.:  10.5
      thresh= 1.719E-07 alpha_mix =  0.700 |ddv_scf|^2 =  1.144E-12

      iter #   8 total cpu time :  5569.5 secs   av.it.:  10.5
      thresh= 1.070E-07 alpha_mix =  0.700 |ddv_scf|^2 =  1.169E-13

      iter #   9 total cpu time :  5581.1 secs   av.it.:  10.5
      thresh= 3.419E-08 alpha_mix =  0.700 |ddv_scf|^2 =  4.683E-17

     End of self-consistent calculation

     Convergence has been achieved 


     Representation # 38 mode #  38

     Self-consistent Calculation

      iter #   1 total cpu time :  5587.9 secs   av.it.:   6.0
      thresh= 1.000E-02 alpha_mix =  0.700 |ddv_scf|^2 =  4.590E-06

      iter #   2 total cpu time :  5596.3 secs   av.it.:  10.5
      thresh= 2.142E-04 alpha_mix =  0.700 |ddv_scf|^2 =  2.782E-05

      iter #   3 total cpu time :  5602.8 secs   av.it.:   9.0
      thresh= 5.275E-04 alpha_mix =  0.700 |ddv_scf|^2 =  1.503E-07

      iter #   4 total cpu time :  5610.9 secs   av.it.:  10.0
      thresh= 3.876E-05 alpha_mix =  0.700 |ddv_scf|^2 =  9.564E-10

      iter #   5 total cpu time :  5625.4 secs   av.it.:  11.0
      thresh= 3.093E-06 alpha_mix =  0.700 |ddv_scf|^2 =  1.649E-10

      iter #   6 total cpu time :  5647.4 secs   av.it.:  10.5
      thresh= 1.284E-06 alpha_mix =  0.700 |ddv_scf|^2 =  6.601E-12

      iter #   7 total cpu time :  5666.8 secs   av.it.:  11.0
      thresh= 2.569E-07 alpha_mix =  0.700 |ddv_scf|^2 =  3.590E-13

      iter #   8 total cpu time :  5675.5 secs   av.it.:  11.0
      thresh= 5.991E-08 alpha_mix =  0.700 |ddv_scf|^2 =  3.305E-13

      iter #   9 total cpu time :  5683.4 secs   av.it.:  10.0
      thresh= 5.749E-08 alpha_mix =  0.700 |ddv_scf|^2 =  3.519E-14

      iter #  10 total cpu time :  5692.0 secs   av.it.:  11.0
      thresh= 1.876E-08 alpha_mix =  0.700 |ddv_scf|^2 =  1.001E-14

      iter #  11 total cpu time :  5700.6 secs   av.it.:  10.5
      thresh= 1.001E-08 alpha_mix =  0.700 |ddv_scf|^2 =  1.018E-16

     End of self-consistent calculation

     Convergence has been achieved 


[...]

     Convergence has been achieved 


     Representation # 44 mode #  44

     Self-consistent Calculation

      iter #   1 total cpu time :  6138.2 secs   av.it.:   5.0
      thresh= 1.000E-02 alpha_mix =  0.700 |ddv_scf|^2 =  6.719E-08

      iter #   2 total cpu time :  6155.2 secs   av.it.:  11.5
      thresh= 2.592E-05 alpha_mix =  0.700 |ddv_scf|^2 =  7.029E-08

      iter #   3 total cpu time :  6175.0 secs   av.it.:  11.0
      thresh= 2.651E-05 alpha_mix =  0.700 |ddv_scf|^2 =  3.466E-10

      iter #   4 total cpu time :  6186.0 secs   av.it.:  11.5
      thresh= 1.862E-06 alpha_mix =  0.700 |ddv_scf|^2 =  4.410E-11

      iter #   5 total cpu time :  6194.5 secs   av.it.:  11.0
      thresh= 6.641E-07 alpha_mix =  0.700 |ddv_scf|^2 =  1.203E-12

      iter #   6 total cpu time :  6202.4 secs   av.it.:  11.0
      thresh= 1.097E-07 alpha_mix =  0.700 |ddv_scf|^2 =  3.532E-13

      iter #   7 total cpu time :  6209.8 secs   av.it.:  11.0
      thresh= 5.943E-08 alpha_mix =  0.700 |ddv_scf|^2 =  5.573E-15

     End of self-consistent calculation

     Convergence has been achieved 


     Representation # 45 mode #  45

     Self-consistent Calculation

      iter #   1 total cpu time :  6216.4 secs   av.it.:   5.0
      thresh= 1.000E-02 alpha_mix =  0.700 |ddv_scf|^2 =  5.613E-08

      iter #   2 total cpu time :  6226.1 secs   av.it.:  12.0
      thresh= 2.369E-05 alpha_mix =  0.700 |ddv_scf|^2 =  5.174E-08

      iter #   3 total cpu time :  6234.3 secs   av.it.:  11.0
      thresh= 2.275E-05 alpha_mix =  0.700 |ddv_scf|^2 =  6.518E-10

      iter #   4 total cpu time :  6244.9 secs   av.it.:  11.0
      thresh= 2.553E-06 alpha_mix =  0.700 |ddv_scf|^2 =  7.639E-12

      iter #   5 total cpu time :  6256.3 secs   av.it.:  11.5
      thresh= 2.764E-07 alpha_mix =  0.700 |ddv_scf|^2 =  4.045E-12

      iter #   6 total cpu time :  6266.7 secs   av.it.:  11.0
      thresh= 2.011E-07 alpha_mix =  0.700 |ddv_scf|^2 =  4.697E-14

      iter #   7 total cpu time :  6278.3 secs   av.it.:  11.0
      thresh= 2.167E-08 alpha_mix =  0.700 |ddv_scf|^2 =  1.012E-14

      iter #   8 total cpu time :  6297.3 secs   av.it.:  11.0
      thresh= 1.006E-08 alpha_mix =  0.700 |ddv_scf|^2 =  5.962E-17

     End of self-consistent calculation

     Convergence has been achieved 


     Representation # 46 mode #  46

     Self-consistent Calculation

      iter #   1 total cpu time :  6314.4 secs   av.it.:   5.0
      thresh= 1.000E-02 alpha_mix =  0.700 |ddv_scf|^2 =  5.434E-08

      iter #   2 total cpu time :  6340.0 secs   av.it.:  11.5
      thresh= 2.331E-05 alpha_mix =  0.700 |ddv_scf|^2 =  3.220E-08

      iter #   3 total cpu time :  6361.4 secs   av.it.:  11.0
      thresh= 1.794E-05 alpha_mix =  0.700 |ddv_scf|^2 =  6.111E-10

      iter #   4 total cpu time :  6373.8 secs   av.it.:  11.0
      thresh= 2.472E-06 alpha_mix =  0.700 |ddv_scf|^2 =  8.943E-11

      iter #   5 total cpu time :  6386.5 secs   av.it.:  11.0
      thresh= 9.457E-07 alpha_mix =  0.700 |ddv_scf|^2 =  1.564E-12

      iter #   6 total cpu time :  6398.3 secs   av.it.:  11.0
      thresh= 1.251E-07 alpha_mix =  0.700 |ddv_scf|^2 =  2.277E-13

      iter #   7 total cpu time :  6411.6 secs   av.it.:  11.0
      thresh= 4.772E-08 alpha_mix =  0.700 |ddv_scf|^2 =  6.299E-15

     End of self-consistent calculation

     Convergence has been achieved 


     Representation # 47 mode #  47

     Self-consistent Calculation

      iter #   1 total cpu time :  6418.7 secs   av.it.:   4.0
      thresh= 1.000E-02 alpha_mix =  0.700 |ddv_scf|^2 =  7.352E-09

      iter #   2 total cpu time :  6430.2 secs   av.it.:  11.5
      thresh= 8.575E-06 alpha_mix =  0.700 |ddv_scf|^2 =  7.796E-09

      iter #   3 total cpu time :  6438.6 secs   av.it.:  11.0
      thresh= 8.829E-06 alpha_mix =  0.700 |ddv_scf|^2 =  2.399E-11

      iter #   4 total cpu time :  6447.6 secs   av.it.:  11.5
      thresh= 4.897E-07 alpha_mix =  0.700 |ddv_scf|^2 =  4.481E-12

      iter #   5 total cpu time :  6455.9 secs   av.it.:  11.0
      thresh= 2.117E-07 alpha_mix =  0.700 |ddv_scf|^2 =  1.358E-13

      iter #   6 total cpu time :  6466.1 secs   av.it.:  11.0
      thresh= 3.685E-08 alpha_mix =  0.700 |ddv_scf|^2 =  3.892E-14

      iter #   7 total cpu time :  6485.4 secs   av.it.:  11.0
      thresh= 1.973E-08 alpha_mix =  0.700 |ddv_scf|^2 =  6.586E-16

     End of self-consistent calculation

     Convergence has been achieved 


     Representation # 48 mode #  48

     Self-consistent Calculation

      iter #   1 total cpu time :  6504.2 secs   av.it.:   5.0
      thresh= 1.000E-02 alpha_mix =  0.700 |ddv_scf|^2 =  4.306E-08

      iter #   2 total cpu time :  6521.6 secs   av.it.:  11.5
      thresh= 2.075E-05 alpha_mix =  0.700 |ddv_scf|^2 =  3.956E-08

      iter #   3 total cpu time :  6534.7 secs   av.it.:  11.0
      thresh= 1.989E-05 alpha_mix =  0.700 |ddv_scf|^2 =  4.042E-10

      iter #   4 total cpu time :  6543.1 secs   av.it.:  11.0
      thresh= 2.010E-06 alpha_mix =  0.700 |ddv_scf|^2 =  4.704E-11

      iter #   5 total cpu time :  6552.8 secs   av.it.:  11.0
      thresh= 6.859E-07 alpha_mix =  0.700 |ddv_scf|^2 =  1.568E-12

      iter #   6 total cpu time :  6560.9 secs   av.it.:  11.0
      thresh= 1.252E-07 alpha_mix =  0.700 |ddv_scf|^2 =  1.892E-13

      iter #   7 total cpu time :  6569.1 secs   av.it.:  11.0
      thresh= 4.349E-08 alpha_mix =  0.700 |ddv_scf|^2 =  2.987E-15

     End of self-consistent calculation

     Convergence has been achieved 

     Number of q in the star =    1
     List of q in the star:
          1   0.000000000   0.000000000   0.000000000

          Dielectric constant in cartesian axis 

          (      12.971415210       0.000000000       0.000000000 )
          (       0.000000000       1.886674357       0.000000000 )
          (       0.000000000       0.000000000       1.260293652 )

          Effective charges (d Force / dE) in cartesian axis

           atom      1   H  
      Ex  (        0.08085        0.22322       -0.00000 )
      Ey  (        0.12834       -0.02139       -0.00000 )
      Ez  (       -0.00000       -0.00000        0.12373 )
           atom      2   H  
      Ex  (        0.08085       -0.22322        0.00000 )
      Ey  (       -0.12834       -0.02139        0.00000 )
      Ez  (        0.00000        0.00000        0.12373 )
           atom      3   C  
      Ex  (       -1.07313       -1.61755        0.00000 )
      Ey  (       -0.12743        0.08454        0.00000 )
      Ez  (        0.00000       -0.00000       -0.11721 )
           atom      4   C  
      Ex  (       -1.07313        1.61755        0.00000 )
      Ey  (        0.12743        0.08454       -0.00000 )
      Ez  (        0.00000        0.00000       -0.11721 )
           atom      5   C  
      Ex  (        0.05150        0.09179       -0.00000 )
      Ey  (        0.11706       -0.06134        0.00000 )
      Ez  (       -0.00000        0.00000        0.00964 )
           atom      6   C  
      Ex  (        0.05150       -0.09179        0.00000 )
      Ey  (       -0.11706       -0.06134       -0.00000 )
      Ez  (        0.00000        0.00000        0.00964 )
           atom      7   C  
      Ex  (       -0.96601        1.05365        0.00000 )
      Ey  (        0.11686        0.05306        0.00000 )
      Ez  (        0.00000        0.00000        0.02565 )
           atom      8   C  
      Ex  (       -0.96601       -1.05365        0.00000 )
      Ey  (       -0.11686        0.05306        0.00000 )
      Ez  (       -0.00000        0.00000        0.02565 )
           atom      9   C  
      Ex  (       -0.96601        1.05365        0.00000 )
      Ey  (        0.11686        0.05306        0.00000 )
      Ez  (       -0.00000        0.00000        0.02565 )
           atom     10   C  
      Ex  (       -0.96601       -1.05365        0.00000 )
      Ey  (       -0.11686        0.05306       -0.00000 )
      Ez  (        0.00000        0.00000        0.02565 )
           atom     11   C  
      Ex  (        0.05150        0.09179        0.00000 )
      Ey  (        0.11706       -0.06134       -0.00000 )
      Ez  (       -0.00000       -0.00000        0.00964 )
           atom     12   C  
      Ex  (        0.05150       -0.09179       -0.00000 )
      Ey  (       -0.11706       -0.06134        0.00000 )
      Ez  (       -0.00000       -0.00000        0.00964 )
           atom     13   C  
      Ex  (       -1.07313       -1.61755        0.00000 )
      Ey  (       -0.12743        0.08454       -0.00000 )
      Ez  (        0.00000       -0.00000       -0.11721 )
           atom     14   C  
      Ex  (       -1.07313        1.61755        0.00000 )
      Ey  (        0.12743        0.08454       -0.00000 )
      Ez  (        0.00000       -0.00000       -0.11721 )
           atom     15   H  
      Ex  (        0.08085        0.22322        0.00000 )
      Ey  (        0.12834       -0.02139        0.00000 )
      Ez  (        0.00000        0.00000        0.12373 )
           atom     16   H  
      Ex  (        0.08085       -0.22322       -0.00000 )
      Ey  (       -0.12834       -0.02139       -0.00000 )
      Ez  (       -0.00000        0.00000        0.12373 )

     Diagonalizing the dynamical matrix

     q = (    0.000000000   0.000000000   0.000000000 ) 

 **************************************************************************
     freq (    1) =      -1.242475 [THz] =     -41.444493 [cm-1]
     freq (    2) =       0.953106 [THz] =      31.792203 [cm-1]
     freq (    3) =       1.040446 [THz] =      34.705556 [cm-1]
     freq (    4) =       2.241798 [THz] =      74.778319 [cm-1]
     freq (    5) =       4.046665 [THz] =     134.982223 [cm-1]
     freq (    6) =       9.022673 [THz] =     300.963961 [cm-1]
     freq (    7) =       9.806261 [THz] =     327.101651 [cm-1]
     freq (    8) =      10.830336 [THz] =     361.261119 [cm-1]
     freq (    9) =      10.930066 [THz] =     364.587745 [cm-1]
     freq (   10) =      13.894445 [THz] =     463.468791 [cm-1]
     freq (   11) =      13.974594 [THz] =     466.142277 [cm-1]
     freq (   12) =      14.579693 [THz] =     486.326204 [cm-1]
     freq (   13) =      15.978239 [THz] =     532.976697 [cm-1]
     freq (   14) =      17.521396 [THz] =     584.450867 [cm-1]
     freq (   15) =      18.200561 [THz] =     607.105372 [cm-1]
     freq (   16) =      18.464257 [THz] =     615.901324 [cm-1]
     freq (   17) =      20.936268 [THz] =     698.358745 [cm-1]
     freq (   18) =      23.134344 [THz] =     771.678643 [cm-1]
     freq (   19) =      23.277240 [THz] =     776.445154 [cm-1]
     freq (   20) =      23.416535 [THz] =     781.091521 [cm-1]
     freq (   21) =      24.912993 [THz] =     831.008007 [cm-1]
     freq (   22) =      25.373435 [THz] =     846.366698 [cm-1]
     freq (   23) =      25.602760 [THz] =     854.016158 [cm-1]
     freq (   24) =      26.982184 [THz] =     900.028795 [cm-1]
     freq (   25) =      27.019889 [THz] =     901.286475 [cm-1]
     freq (   26) =      30.059471 [THz] =    1002.676017 [cm-1]
     freq (   27) =      30.684139 [THz] =    1023.512718 [cm-1]
     freq (   28) =      32.986758 [THz] =    1100.319817 [cm-1]
     freq (   29) =      34.494440 [THz] =    1150.610679 [cm-1]
     freq (   30) =      35.632512 [THz] =    1188.572655 [cm-1]
     freq (   31) =      36.858316 [THz] =    1229.461075 [cm-1]
     freq (   32) =      37.108274 [THz] =    1237.798783 [cm-1]
     freq (   33) =      37.438905 [THz] =    1248.827457 [cm-1]
     freq (   34) =      37.900600 [THz] =    1264.227935 [cm-1]
     freq (   35) =      39.148065 [THz] =    1305.838899 [cm-1]
     freq (   36) =      40.012146 [THz] =    1334.661535 [cm-1]
     freq (   37) =      40.363098 [THz] =    1346.368034 [cm-1]
     freq (   38) =      41.645006 [THz] =    1389.127861 [cm-1]
     freq (   39) =      41.828719 [THz] =    1395.255865 [cm-1]
     freq (   40) =      44.090718 [THz] =    1470.708058 [cm-1]
     freq (   41) =      46.360117 [THz] =    1546.407040 [cm-1]
     freq (   42) =      47.135954 [THz] =    1572.286199 [cm-1]
     freq (   43) =      47.414246 [THz] =    1581.569023 [cm-1]
     freq (   44) =      48.816122 [THz] =    1628.330548 [cm-1]
     freq (   45) =      95.778128 [THz] =    3194.814456 [cm-1]
     freq (   46) =      95.786767 [THz] =    3195.102636 [cm-1]
     freq (   47) =      96.860557 [THz] =    3230.920406 [cm-1]
     freq (   48) =      96.862422 [THz] =    3230.982619 [cm-1]
 **************************************************************************

     Mode symmetry, D_2h (mmm)  point group:

     freq (  1 -  1) =        -41.4  [cm-1]   --> B_1u            I  
     freq (  2 -  2) =         31.8  [cm-1]   --> B_3u            I  
     freq (  3 -  3) =         34.7  [cm-1]   --> B_3g            R  
     freq (  4 -  4) =         74.8  [cm-1]   --> B_2u            I  
     freq (  5 -  5) =        135.0  [cm-1]   --> B_1u            I  
     freq (  6 -  6) =        301.0  [cm-1]   --> B_1g            R  
     freq (  7 -  7) =        327.1  [cm-1]   --> B_3g            R  
     freq (  8 -  8) =        361.3  [cm-1]   --> A_u                
     freq (  9 -  9) =        364.6  [cm-1]   --> B_2g            R  
     freq ( 10 - 10) =        463.5  [cm-1]   --> A_g             R  
     freq ( 11 - 11) =        466.1  [cm-1]   --> A_u                
     freq ( 12 - 12) =        486.3  [cm-1]   --> B_1u            I  
     freq ( 13 - 13) =        533.0  [cm-1]   --> B_3u            I  
     freq ( 14 - 14) =        584.5  [cm-1]   --> B_3g            R  
     freq ( 15 - 15) =        607.1  [cm-1]   --> B_2g            R  
     freq ( 16 - 16) =        615.9  [cm-1]   --> B_3u            I  
     freq ( 17 - 17) =        698.4  [cm-1]   --> B_1g            R  
     freq ( 18 - 18) =        771.7  [cm-1]   --> A_u                
     freq ( 19 - 19) =        776.4  [cm-1]   --> B_1u            I  
     freq ( 20 - 20) =        781.1  [cm-1]   --> B_3g            R  
     freq ( 21 - 21) =        831.0  [cm-1]   --> B_2u            I  
     freq ( 22 - 22) =        846.4  [cm-1]   --> B_1g            R  
     freq ( 23 - 23) =        854.0  [cm-1]   --> B_2g            R  
     freq ( 24 - 24) =        900.0  [cm-1]   --> A_u                
     freq ( 25 - 25) =        901.3  [cm-1]   --> B_2g            R  
     freq ( 26 - 26) =       1002.7  [cm-1]   --> B_3u            I  
     freq ( 27 - 27) =       1023.5  [cm-1]   --> A_g             R  
     freq ( 28 - 28) =       1100.3  [cm-1]   --> B_3u            I  
     freq ( 29 - 29) =       1150.6  [cm-1]   --> B_2u            I  
     freq ( 30 - 30) =       1188.6  [cm-1]   --> B_1g            R  
     freq ( 31 - 31) =       1229.5  [cm-1]   --> B_2u            I  
     freq ( 32 - 32) =       1237.8  [cm-1]   --> A_g             R  
     freq ( 33 - 33) =       1248.8  [cm-1]   --> A_g             R  
     freq ( 34 - 34) =       1264.2  [cm-1]   --> B_2u            I  
     freq ( 35 - 35) =       1305.8  [cm-1]   --> B_1g            R  
     freq ( 36 - 36) =       1334.7  [cm-1]   --> B_2u            I  
     freq ( 37 - 37) =       1346.4  [cm-1]   --> A_g             R  
     freq ( 38 - 38) =       1389.1  [cm-1]   --> A_g             R  
     freq ( 39 - 39) =       1395.3  [cm-1]   --> B_3u            I  
     freq ( 40 - 40) =       1470.7  [cm-1]   --> B_1g            R  
     freq ( 41 - 41) =       1546.4  [cm-1]   --> B_2u            I  
     freq ( 42 - 42) =       1572.3  [cm-1]   --> B_1g            R  
     freq ( 43 - 43) =       1581.6  [cm-1]   --> B_3u            I  
     freq ( 44 - 44) =       1628.3  [cm-1]   --> A_g             R  
     freq ( 45 - 45) =       3194.8  [cm-1]   --> B_1g            R  
     freq ( 46 - 46) =       3195.1  [cm-1]   --> B_3u            I  
     freq ( 47 - 47) =       3230.9  [cm-1]   --> B_2u            I  
     freq ( 48 - 48) =       3231.0  [cm-1]   --> A_g             R  

     PHONON       :     1h41m CPU        1h49m WALL

     INITIALIZATION: 
     phq_setup    :      0.47s CPU      0.50s WALL (       1 calls)
     phq_init     :     11.21s CPU     11.23s WALL (       1 calls)

     phq_init     :     11.21s CPU     11.23s WALL (       1 calls)
     init_vloc    :      1.77s CPU      1.77s WALL (       1 calls)
     init_us_1    :      0.02s CPU      0.02s WALL (       1 calls)

     DIELECTRIC CONSTANT AND EFFECTIVE CHARGES:
     solve_e      :    396.36s CPU    401.40s WALL (       1 calls)
     dielec       :      0.07s CPU      0.13s WALL (       1 calls)
     zstar_eu     :     29.93s CPU     31.21s WALL (       1 calls)

     RAMAN COEFFICIENTS, THIRD-ORDER CHI:
     dhdrhopsi    :    636.75s CPU    645.10s WALL (       1 calls)
     dvpsi_e2     :     19.07s CPU     20.65s WALL (       1 calls)
     solve_e2     :    619.72s CPU    680.57s WALL (       1 calls)

     DYNAMICAL MATRIX:
     dynmat0      :      6.29s CPU      6.30s WALL (       1 calls)
     phqscf       :   4309.38s CPU   4699.02s WALL (       1 calls)
     dynmatrix    :      0.20s CPU      0.21s WALL (       1 calls)

     phqscf       :   4309.38s CPU   4699.02s WALL (       1 calls)
     solve_linter :   4171.93s CPU   4547.46s WALL (      48 calls)
     drhodv       :    119.07s CPU    131.03s WALL (      48 calls)

     dynmat0      :      6.29s CPU      6.30s WALL (       1 calls)
     dynmat_us    :      2.10s CPU      2.11s WALL (       1 calls)
     d2ionq       :      4.17s CPU      4.18s WALL (       1 calls)

     dynmat_us    :      2.10s CPU      2.11s WALL (       1 calls)

     phqscf       :   4309.38s CPU   4699.02s WALL (       1 calls)
     solve_linter :   4171.93s CPU   4547.46s WALL (      48 calls)

     solve_linter :   4171.93s CPU   4547.46s WALL (      48 calls)
     dvqpsi_us    :    121.43s CPU    136.72s WALL (     288 calls)
     ortho        :     13.83s CPU     14.81s WALL (     411 calls)
     cgsolve      :   4130.83s CPU   4447.41s WALL (     513 calls)
     incdrhoscf   :    297.79s CPU    323.13s WALL (     474 calls)
     vpsifft      :    242.83s CPU    269.09s WALL (     303 calls)
     dv_of_drho   :    144.76s CPU    156.30s WALL (     483 calls)
     mix_pot      :     29.35s CPU     40.14s WALL (     378 calls)
     psymdvscf    :    130.64s CPU    139.28s WALL (     351 calls)

     dvqpsi_us    :    121.43s CPU    136.72s WALL (     288 calls)
     dvqpsi_us_on :      4.04s CPU      4.42s WALL (     288 calls)

     cgsolve      :   4130.83s CPU   4447.41s WALL (     513 calls)
     ch_psi       :   3949.94s CPU   4253.69s WALL (    8544 calls)

     ch_psi       :   3949.94s CPU   4253.69s WALL (    8544 calls)
     h_psiq       :   3637.35s CPU   3920.75s WALL (    8544 calls)
     last         :    295.22s CPU    314.38s WALL (    8544 calls)

     h_psiq       :   3637.35s CPU   3920.75s WALL (    8544 calls)
     firstfft     :   1513.42s CPU   1637.17s WALL (  155299 calls)
     secondfft    :   1752.79s CPU   1888.01s WALL (  155299 calls)
     add_vuspsi   :     27.25s CPU     28.85s WALL (   10940 calls)

     incdrhoscf   :    297.79s CPU    323.13s WALL (     474 calls)


      General routines
     calbec       :    146.87s CPU    158.66s WALL (   22681 calls)
     fft          :    110.26s CPU    119.27s WALL (    5327 calls)
     ffts         :     80.01s CPU     87.60s WALL (    2592 calls)
     fftw         :   3742.35s CPU   4052.38s WALL (  379394 calls)
     davcio       :      0.63s CPU     20.81s WALL (    4844 calls)
     write_rec    :     25.16s CPU     30.44s WALL (     426 calls)


     PHONON       :     1h41m CPU        1h49m WALL


   This run was terminated on:  14: 6:12   6Jul2014            

=------------------------------------------------------------------------------=
   JOB DONE.
=------------------------------------------------------------------------------=
