ANIMSTEPS  54
CRYSTAL
PRIMVEC
    4.260844976    0.000000000    0.000000000
    0.000000000   12.999999935    0.000000000
    0.000000000    0.000000000    8.000000189
PRIMCOORD  1
     18   1
   H      0.92187  -4.65279  -0.00000  -0.00000   0.00000   0.02213
   H      3.33897  -4.65279  -0.00000  -0.00000   0.00000   0.02213
   C      1.44741  -3.69694  -0.00000  -0.00000   0.00000   0.02300
   C      2.81343  -3.69694  -0.00000  -0.00000   0.00000   0.02300
   C      0.72671  -2.47486  -0.00000  -0.00000   0.00000   0.02366
   C      3.53414  -2.47486  -0.00000  -0.00000   0.00000   0.02366
   C      1.41020  -1.24850   0.00000  -0.00000   0.00000   0.02453
   C      2.85065  -1.24850  -0.00000  -0.00000   0.00000   0.02453
   C      0.70556   0.00000   0.00000  -0.00000   0.00000   0.02529
   C      3.55529  -0.00000   0.00000  -0.00000   0.00000   0.02529
   C      1.41020   1.24850  -0.00000  -0.00000   0.00000   0.02453
   C      2.85065   1.24850   0.00000  -0.00000   0.00000   0.02453
   C      0.72671   2.47486   0.00000  -0.00000   0.00000   0.02366
   C      3.53414   2.47486  -0.00000  -0.00000   0.00000   0.02366
   C      1.44741   3.69694   0.00000  -0.00000   0.00000   0.02300
   C      2.81343   3.69694   0.00000  -0.00000   0.00000   0.02300
   H      0.92187   4.65279  -0.00000  -0.00000   0.00000   0.02213
   H      3.33897   4.65279  -0.00000  -0.00000   0.00000   0.02213
PRIMCOORD  2
     18   1
   H      0.92187  -4.65279  -0.00000  -0.00000   0.00000   0.03600
   H      3.33897  -4.65279  -0.00000  -0.00000   0.00000   0.03600
   C      1.44741  -3.69694  -0.00000  -0.00000   0.00000   0.02805
   C      2.81343  -3.69694  -0.00000  -0.00000   0.00000   0.02805
   C      0.72671  -2.47486  -0.00000  -0.00000   0.00000   0.01827
   C      3.53414  -2.47486  -0.00000  -0.00000   0.00000   0.01827
   C      1.41020  -1.24850   0.00000  -0.00000   0.00000   0.00916
   C      2.85065  -1.24850  -0.00000  -0.00000   0.00000   0.00916
   C      0.70556   0.00000   0.00000  -0.00000   0.00000  -0.00000
   C      3.55529  -0.00000   0.00000  -0.00000   0.00000  -0.00000
   C      1.41020   1.24850  -0.00000  -0.00000   0.00000  -0.00916
   C      2.85065   1.24850   0.00000  -0.00000   0.00000  -0.00916
   C      0.72671   2.47486   0.00000  -0.00000   0.00000  -0.01827
   C      3.53414   2.47486  -0.00000  -0.00000   0.00000  -0.01827
   C      1.44741   3.69694   0.00000  -0.00000   0.00000  -0.02805
   C      2.81343   3.69694   0.00000  -0.00000   0.00000  -0.02805
   H      0.92187   4.65279  -0.00000  -0.00000   0.00000  -0.03600
   H      3.33897   4.65279  -0.00000  -0.00000   0.00000  -0.03600
PRIMCOORD  3
     18   1
   H      0.92187  -4.65279  -0.00000  -0.00021   0.02329  -0.00000
   H      3.33897  -4.65279  -0.00000   0.00021   0.02329  -0.00000
   C      1.44741  -3.69694  -0.00000  -0.00010   0.02323  -0.00000
   C      2.81343  -3.69694  -0.00000   0.00010   0.02323  -0.00000
   C      0.72671  -2.47486  -0.00000   0.00005   0.02363  -0.00000
   C      3.53414  -2.47486  -0.00000  -0.00005   0.02363  -0.00000
   C      1.41020  -1.24850   0.00000  -0.00006   0.02387  -0.00000
   C      2.85065  -1.24850  -0.00000   0.00006   0.02387  -0.00000
   C      0.70556   0.00000   0.00000   0.00000   0.02410  -0.00000
   C      3.55529  -0.00000   0.00000   0.00000   0.02410  -0.00000
   C      1.41020   1.24850  -0.00000   0.00006   0.02387  -0.00000
   C      2.85065   1.24850   0.00000  -0.00006   0.02387   0.00000
   C      0.72671   2.47486   0.00000  -0.00005   0.02363   0.00000
   C      3.53414   2.47486  -0.00000   0.00005   0.02363   0.00000
   C      1.44741   3.69694   0.00000   0.00010   0.02323   0.00000
   C      2.81343   3.69694   0.00000  -0.00010   0.02323   0.00000
   H      0.92187   4.65279  -0.00000   0.00021   0.02329   0.00000
   H      3.33897   4.65279  -0.00000  -0.00021   0.02329   0.00000
PRIMCOORD  4
     18   1
   H      0.92187  -4.65279  -0.00000   0.02440  -0.00049   0.00000
   H      3.33897  -4.65279  -0.00000   0.02440   0.00049   0.00000
   C      1.44741  -3.69694  -0.00000   0.02411  -0.00033   0.00000
   C      2.81343  -3.69694  -0.00000   0.02411   0.00033   0.00000
   C      0.72671  -2.47486  -0.00000   0.02348  -0.00025   0.00000
   C      3.53414  -2.47486  -0.00000   0.02348   0.00025   0.00000
   C      1.41020  -1.24850   0.00000   0.02282  -0.00007   0.00000
   C      2.85065  -1.24850  -0.00000   0.02282   0.00007   0.00000
   C      0.70556   0.00000   0.00000   0.02241  -0.00000   0.00000
   C      3.55529  -0.00000   0.00000   0.02241  -0.00000   0.00000
   C      1.41020   1.24850  -0.00000   0.02282   0.00007   0.00000
   C      2.85065   1.24850   0.00000   0.02282  -0.00007   0.00000
   C      0.72671   2.47486   0.00000   0.02348   0.00025   0.00000
   C      3.53414   2.47486  -0.00000   0.02348  -0.00025   0.00000
   C      1.44741   3.69694   0.00000   0.02411   0.00033   0.00000
   C      2.81343   3.69694   0.00000   0.02411  -0.00033   0.00000
   H      0.92187   4.65279  -0.00000   0.02440   0.00049   0.00000
   H      3.33897   4.65279  -0.00000   0.02440  -0.00049   0.00000
PRIMCOORD  5
     18   1
   H      0.92187  -4.65279  -0.00000   0.00000   0.00000  -0.03910
   H      3.33897  -4.65279  -0.00000   0.00000   0.00000  -0.03910
   C      1.44741  -3.69694  -0.00000   0.00000   0.00000  -0.02261
   C      2.81343  -3.69694  -0.00000   0.00000   0.00000  -0.02261
   C      0.72671  -2.47486  -0.00000   0.00000   0.00000  -0.00191
   C      3.53414  -2.47486  -0.00000   0.00000   0.00000  -0.00191
   C      1.41020  -1.24850   0.00000   0.00000   0.00000   0.01465
   C      2.85065  -1.24850  -0.00000   0.00000   0.00000   0.01465
   C      0.70556   0.00000   0.00000   0.00000   0.00000   0.02200
   C      3.55529  -0.00000   0.00000   0.00000   0.00000   0.02200
   C      1.41020   1.24850  -0.00000   0.00000   0.00000   0.01465
   C      2.85065   1.24850   0.00000   0.00000   0.00000   0.01465
   C      0.72671   2.47486   0.00000   0.00000   0.00000  -0.00191
   C      3.53414   2.47486  -0.00000   0.00000   0.00000  -0.00191
   C      1.44741   3.69694   0.00000   0.00000   0.00000  -0.02261
   C      2.81343   3.69694   0.00000   0.00000   0.00000  -0.02261
   H      0.92187   4.65279  -0.00000   0.00000   0.00000  -0.03910
   H      3.33897   4.65279  -0.00000   0.00000   0.00000  -0.03910
PRIMCOORD  6
     18   1
   H      0.92187  -4.65279  -0.00000   0.00000  -0.00000  -0.03988
   H      3.33897  -4.65279  -0.00000   0.00000   0.00000  -0.03988
   C      1.44741  -3.69694  -0.00000   0.00000   0.00000  -0.01338
   C      2.81343  -3.69694  -0.00000   0.00000   0.00000  -0.01338
   C      0.72671  -2.47486  -0.00000   0.00000   0.00000   0.01635
   C      3.53414  -2.47486  -0.00000   0.00000   0.00000   0.01635
   C      1.41020  -1.24850   0.00000   0.00000   0.00000   0.02152
   C      2.85065  -1.24850  -0.00000   0.00000   0.00000   0.02152
   C      0.70556   0.00000   0.00000   0.00000  -0.00000  -0.00000
   C      3.55529  -0.00000   0.00000   0.00000   0.00000  -0.00000
   C      1.41020   1.24850  -0.00000  -0.00000   0.00000  -0.02152
   C      2.85065   1.24850   0.00000  -0.00000  -0.00000  -0.02152
   C      0.72671   2.47486   0.00000  -0.00000  -0.00000  -0.01635
   C      3.53414   2.47486  -0.00000  -0.00000   0.00000  -0.01635
   C      1.44741   3.69694   0.00000  -0.00000  -0.00000   0.01338
   C      2.81343   3.69694   0.00000  -0.00000   0.00000   0.01338
   H      0.92187   4.65279  -0.00000  -0.00000  -0.00000   0.03988
   H      3.33897   4.65279  -0.00000  -0.00000   0.00000   0.03988
PRIMCOORD  7
     18   1
   H      0.92187  -4.65279  -0.00000  -0.03145   0.00261  -0.00000
   H      3.33897  -4.65279  -0.00000  -0.03145  -0.00261  -0.00000
   C      1.44741  -3.69694  -0.00000  -0.02873   0.00105  -0.00000
   C      2.81343  -3.69694  -0.00000  -0.02873  -0.00105  -0.00000
   C      0.72671  -2.47486  -0.00000  -0.02262   0.00167   0.00000
   C      3.53414  -2.47486  -0.00000  -0.02262  -0.00167   0.00000
   C      1.41020  -1.24850   0.00000  -0.01274  -0.00036   0.00000
   C      2.85065  -1.24850  -0.00000  -0.01274   0.00036   0.00000
   C      0.70556   0.00000   0.00000  -0.00000   0.00133   0.00000
   C      3.55529  -0.00000   0.00000  -0.00000  -0.00133   0.00000
   C      1.41020   1.24850  -0.00000   0.01274  -0.00036  -0.00000
   C      2.85065   1.24850   0.00000   0.01274   0.00036  -0.00000
   C      0.72671   2.47486   0.00000   0.02262   0.00167  -0.00000
   C      3.53414   2.47486  -0.00000   0.02262  -0.00167  -0.00000
   C      1.44741   3.69694   0.00000   0.02873   0.00105   0.00000
   C      2.81343   3.69694   0.00000   0.02873  -0.00105   0.00000
   H      0.92187   4.65279  -0.00000   0.03145   0.00261   0.00000
   H      3.33897   4.65279  -0.00000   0.03145  -0.00261   0.00000
PRIMCOORD  8
     18   1
   H      0.92187  -4.65279  -0.00000  -0.00000  -0.00000  -0.04364
   H      3.33897  -4.65279  -0.00000  -0.00000  -0.00000   0.04364
   C      1.44741  -3.69694  -0.00000  -0.00000  -0.00000  -0.02136
   C      2.81343  -3.69694  -0.00000  -0.00000  -0.00000   0.02136
   C      0.72671  -2.47486  -0.00000  -0.00000  -0.00000  -0.01148
   C      3.53414  -2.47486  -0.00000  -0.00000  -0.00000   0.01148
   C      1.41020  -1.24850   0.00000   0.00000  -0.00000  -0.00038
   C      2.85065  -1.24850  -0.00000   0.00000  -0.00000   0.00038
   C      0.70556   0.00000   0.00000   0.00000   0.00000   0.00397
   C      3.55529  -0.00000   0.00000   0.00000   0.00000  -0.00397
   C      1.41020   1.24850  -0.00000   0.00000   0.00000  -0.00038
   C      2.85065   1.24850   0.00000   0.00000   0.00000   0.00038
   C      0.72671   2.47486   0.00000   0.00000   0.00000  -0.01148
   C      3.53414   2.47486  -0.00000   0.00000   0.00000   0.01148
   C      1.44741   3.69694   0.00000   0.00000   0.00000  -0.02136
   C      2.81343   3.69694   0.00000   0.00000   0.00000   0.02136
   H      0.92187   4.65279  -0.00000   0.00000   0.00000  -0.04364
   H      3.33897   4.65279  -0.00000   0.00000   0.00000   0.04364
PRIMCOORD  9
     18   1
   H      0.92187  -4.65279  -0.00000   0.00000   0.00000  -0.04277
   H      3.33897  -4.65279  -0.00000  -0.00000   0.00000   0.04277
   C      1.44741  -3.69694  -0.00000   0.00000   0.00000  -0.02159
   C      2.81343  -3.69694  -0.00000  -0.00000   0.00000   0.02159
   C      0.72671  -2.47486  -0.00000  -0.00000   0.00000  -0.01354
   C      3.53414  -2.47486  -0.00000   0.00000   0.00000   0.01354
   C      1.41020  -1.24850   0.00000   0.00000   0.00000  -0.00465
   C      2.85065  -1.24850  -0.00000  -0.00000   0.00000   0.00465
   C      0.70556   0.00000   0.00000  -0.00000   0.00000  -0.00000
   C      3.55529  -0.00000   0.00000   0.00000   0.00000   0.00000
   C      1.41020   1.24850  -0.00000   0.00000  -0.00000   0.00465
   C      2.85065   1.24850   0.00000  -0.00000  -0.00000  -0.00465
   C      0.72671   2.47486   0.00000  -0.00000  -0.00000   0.01354
   C      3.53414   2.47486  -0.00000  -0.00000  -0.00000  -0.01354
   C      1.44741   3.69694   0.00000  -0.00000  -0.00000   0.02159
   C      2.81343   3.69694   0.00000   0.00000  -0.00000  -0.02159
   H      0.92187   4.65279  -0.00000   0.00000  -0.00000   0.04277
   H      3.33897   4.65279  -0.00000   0.00000  -0.00000  -0.04277
PRIMCOORD 10
     18   1
   H      0.92187  -4.65279  -0.00000   0.00000   0.00000   0.03983
   H      3.33897  -4.65279  -0.00000  -0.00000   0.00000   0.03983
   C      1.44741  -3.69694  -0.00000   0.00000   0.00000   0.00784
   C      2.81343  -3.69694  -0.00000   0.00000   0.00000   0.00784
   C      0.72671  -2.47486  -0.00000  -0.00000   0.00000  -0.02335
   C      3.53414  -2.47486  -0.00000   0.00000   0.00000  -0.02335
   C      1.41020  -1.24850   0.00000   0.00000   0.00000  -0.00061
   C      2.85065  -1.24850  -0.00000  -0.00000   0.00000  -0.00061
   C      0.70556   0.00000   0.00000  -0.00000   0.00000   0.02476
   C      3.55529  -0.00000   0.00000   0.00000  -0.00000   0.02476
   C      1.41020   1.24850  -0.00000   0.00000  -0.00000  -0.00061
   C      2.85065   1.24850   0.00000  -0.00000  -0.00000  -0.00061
   C      0.72671   2.47486   0.00000  -0.00000  -0.00000  -0.02335
   C      3.53414   2.47486  -0.00000   0.00000  -0.00000  -0.02335
   C      1.44741   3.69694   0.00000   0.00000  -0.00000   0.00784
   C      2.81343   3.69694   0.00000   0.00000  -0.00000   0.00784
   H      0.92187   4.65279  -0.00000  -0.00000  -0.00000   0.03983
   H      3.33897   4.65279  -0.00000   0.00000  -0.00000   0.03983
PRIMCOORD 11
     18   1
   H      0.92187  -4.65279  -0.00000  -0.00259  -0.02857   0.00000
   H      3.33897  -4.65279  -0.00000   0.00259  -0.02857   0.00000
   C      1.44741  -3.69694  -0.00000  -0.00033  -0.02964  -0.00000
   C      2.81343  -3.69694  -0.00000   0.00033  -0.02964   0.00000
   C      0.72671  -2.47486  -0.00000   0.00171  -0.02413  -0.00000
   C      3.53414  -2.47486  -0.00000  -0.00171  -0.02413  -0.00000
   C      1.41020  -1.24850   0.00000  -0.00143  -0.01453  -0.00000
   C      2.85065  -1.24850  -0.00000   0.00143  -0.01453   0.00000
   C      0.70556   0.00000   0.00000   0.00118  -0.00000   0.00000
   C      3.55529  -0.00000   0.00000  -0.00118  -0.00000   0.00000
   C      1.41020   1.24850  -0.00000  -0.00143   0.01453  -0.00000
   C      2.85065   1.24850   0.00000   0.00143   0.01453   0.00000
   C      0.72671   2.47486   0.00000   0.00171   0.02413  -0.00000
   C      3.53414   2.47486  -0.00000  -0.00171   0.02413  -0.00000
   C      1.44741   3.69694   0.00000  -0.00033   0.02964   0.00000
   C      2.81343   3.69694   0.00000   0.00033   0.02964  -0.00000
   H      0.92187   4.65279  -0.00000  -0.00259   0.02857   0.00000
   H      3.33897   4.65279  -0.00000   0.00259   0.02857   0.00000
PRIMCOORD 12
     18   1
   H      0.92187  -4.65279  -0.00000   0.00000   0.00000   0.01781
   H      3.33897  -4.65279  -0.00000   0.00000   0.00000  -0.01781
   C      1.44741  -3.69694  -0.00000   0.00000   0.00000   0.00250
   C      2.81343  -3.69694  -0.00000  -0.00000   0.00000  -0.00250
   C      0.72671  -2.47486  -0.00000  -0.00000   0.00000  -0.01605
   C      3.53414  -2.47486  -0.00000   0.00000   0.00000   0.01605
   C      1.41020  -1.24850   0.00000   0.00000   0.00000  -0.03363
   C      2.85065  -1.24850  -0.00000  -0.00000  -0.00000   0.03363
   C      0.70556   0.00000   0.00000  -0.00000  -0.00000  -0.03969
   C      3.55529  -0.00000   0.00000  -0.00000  -0.00000   0.03969
   C      1.41020   1.24850  -0.00000   0.00000  -0.00000  -0.03363
   C      2.85065   1.24850   0.00000   0.00000  -0.00000   0.03363
   C      0.72671   2.47486   0.00000   0.00000  -0.00000  -0.01605
   C      3.53414   2.47486  -0.00000   0.00000  -0.00000   0.01605
   C      1.44741   3.69694   0.00000   0.00000  -0.00000   0.00250
   C      2.81343   3.69694   0.00000   0.00000  -0.00000  -0.00250
   H      0.92187   4.65279  -0.00000   0.00000  -0.00000   0.01781
   H      3.33897   4.65279  -0.00000   0.00000  -0.00000  -0.01781
PRIMCOORD 13
     18   1
   H      0.92187  -4.65279  -0.00000  -0.00000   0.00000   0.03482
   H      3.33897  -4.65279  -0.00000  -0.00000  -0.00000   0.03482
   C      1.44741  -3.69694  -0.00000  -0.00000   0.00000   0.00356
   C      2.81343  -3.69694  -0.00000  -0.00000  -0.00000   0.00356
   C      0.72671  -2.47486  -0.00000  -0.00000   0.00000  -0.02433
   C      3.53414  -2.47486  -0.00000  -0.00000  -0.00000  -0.02433
   C      1.41020  -1.24850   0.00000   0.00000  -0.00000   0.02612
   C      2.85065  -1.24850  -0.00000   0.00000   0.00000   0.02612
   C      0.70556   0.00000   0.00000   0.00000   0.00000   0.00000
   C      3.55529  -0.00000   0.00000   0.00000   0.00000  -0.00000
   C      1.41020   1.24850  -0.00000   0.00000   0.00000  -0.02612
   C      2.85065   1.24850   0.00000   0.00000   0.00000  -0.02612
   C      0.72671   2.47486   0.00000  -0.00000  -0.00000   0.02433
   C      3.53414   2.47486  -0.00000  -0.00000   0.00000   0.02433
   C      1.44741   3.69694   0.00000  -0.00000  -0.00000  -0.00356
   C      2.81343   3.69694   0.00000  -0.00000   0.00000  -0.00356
   H      0.92187   4.65279  -0.00000  -0.00000  -0.00000  -0.03482
   H      3.33897   4.65279  -0.00000  -0.00000   0.00000  -0.03482
PRIMCOORD 14
     18   1
   H      0.92187  -4.65279  -0.00000  -0.03396   0.01054  -0.00000
   H      3.33897  -4.65279  -0.00000  -0.03396  -0.01054  -0.00000
   C      1.44741  -3.69694  -0.00000  -0.02247   0.00391  -0.00000
   C      2.81343  -3.69694  -0.00000  -0.02247  -0.00391  -0.00000
   C      0.72671  -2.47486  -0.00000  -0.00353   0.00644   0.00000
   C      3.53414  -2.47486  -0.00000  -0.00353  -0.00644   0.00000
   C      1.41020  -1.24850   0.00000   0.01745  -0.00004  -0.00000
   C      2.85065  -1.24850  -0.00000   0.01745   0.00004  -0.00000
   C      0.70556   0.00000   0.00000   0.02673   0.00000   0.00000
   C      3.55529  -0.00000   0.00000   0.02673  -0.00000   0.00000
   C      1.41020   1.24850  -0.00000   0.01745   0.00004   0.00000
   C      2.85065   1.24850   0.00000   0.01745  -0.00004   0.00000
   C      0.72671   2.47486   0.00000  -0.00353  -0.00644  -0.00000
   C      3.53414   2.47486  -0.00000  -0.00353   0.00644  -0.00000
   C      1.44741   3.69694   0.00000  -0.02247  -0.00391   0.00000
   C      2.81343   3.69694   0.00000  -0.02247   0.00391   0.00000
   H      0.92187   4.65279  -0.00000  -0.03396  -0.01054   0.00000
   H      3.33897   4.65279  -0.00000  -0.03396   0.01054   0.00000
PRIMCOORD 15
     18   1
   H      0.92187  -4.65279  -0.00000  -0.02409   0.03059  -0.00000
   H      3.33897  -4.65279  -0.00000  -0.02409  -0.03059   0.00000
   C      1.44741  -3.69694  -0.00000  -0.00136   0.01765  -0.00000
   C      2.81343  -3.69694  -0.00000  -0.00136  -0.01765   0.00000
   C      0.72671  -2.47486  -0.00000   0.00452   0.01698   0.00000
   C      3.53414  -2.47486  -0.00000   0.00452  -0.01698  -0.00000
   C      1.41020  -1.24850   0.00000   0.00455   0.01550   0.00000
   C      2.85065  -1.24850  -0.00000   0.00455  -0.01550  -0.00000
   C      0.70556   0.00000   0.00000  -0.00000   0.01421  -0.00000
   C      3.55529  -0.00000   0.00000  -0.00000  -0.01421  -0.00000
   C      1.41020   1.24850  -0.00000  -0.00455   0.01550  -0.00000
   C      2.85065   1.24850   0.00000  -0.00455  -0.01550   0.00000
   C      0.72671   2.47486   0.00000  -0.00452   0.01698  -0.00000
   C      3.53414   2.47486  -0.00000  -0.00452  -0.01698   0.00000
   C      1.44741   3.69694   0.00000   0.00136   0.01765   0.00000
   C      2.81343   3.69694   0.00000   0.00136  -0.01765  -0.00000
   H      0.92187   4.65279  -0.00000   0.02409   0.03059   0.00000
   H      3.33897   4.65279  -0.00000   0.02409  -0.03059  -0.00000
PRIMCOORD 16
     18   1
   H      0.92187  -4.65279  -0.00000  -0.00000   0.00000   0.03780
   H      3.33897  -4.65279  -0.00000  -0.00000  -0.00000  -0.03780
   C      1.44741  -3.69694  -0.00000   0.00000   0.00000   0.01046
   C      2.81343  -3.69694  -0.00000   0.00000  -0.00000  -0.01046
   C      0.72671  -2.47486  -0.00000   0.00000   0.00000  -0.01803
   C      3.53414  -2.47486  -0.00000   0.00000  -0.00000   0.01803
   C      1.41020  -1.24850   0.00000   0.00000   0.00000  -0.02523
   C      2.85065  -1.24850  -0.00000   0.00000  -0.00000   0.02523
   C      0.70556   0.00000   0.00000  -0.00000   0.00000  -0.00000
   C      3.55529  -0.00000   0.00000  -0.00000  -0.00000  -0.00000
   C      1.41020   1.24850  -0.00000  -0.00000   0.00000   0.02523
   C      2.85065   1.24850   0.00000  -0.00000  -0.00000  -0.02523
   C      0.72671   2.47486   0.00000  -0.00000   0.00000   0.01803
   C      3.53414   2.47486  -0.00000  -0.00000  -0.00000  -0.01803
   C      1.44741   3.69694   0.00000   0.00000   0.00000  -0.01046
   C      2.81343   3.69694   0.00000   0.00000  -0.00000   0.01046
   H      0.92187   4.65279  -0.00000   0.00000   0.00000  -0.03780
   H      3.33897   4.65279  -0.00000   0.00000  -0.00000   0.03780
PRIMCOORD 17
     18   1
   H      0.92187  -4.65279  -0.00000  -0.00000   0.00000  -0.01641
   H      3.33897  -4.65279  -0.00000  -0.00000  -0.00000  -0.01641
   C      1.44741  -3.69694  -0.00000   0.00000   0.00000  -0.00238
   C      2.81343  -3.69694  -0.00000   0.00000  -0.00000  -0.00238
   C      0.72671  -2.47486  -0.00000   0.00000   0.00000   0.01818
   C      3.53414  -2.47486  -0.00000   0.00000  -0.00000   0.01818
   C      1.41020  -1.24850   0.00000  -0.00000   0.00000  -0.03393
   C      2.85065  -1.24850  -0.00000  -0.00000  -0.00000  -0.03393
   C      0.70556   0.00000   0.00000  -0.00000   0.00000   0.03856
   C      3.55529  -0.00000   0.00000  -0.00000  -0.00000   0.03856
   C      1.41020   1.24850  -0.00000  -0.00000   0.00000  -0.03393
   C      2.85065   1.24850   0.00000  -0.00000  -0.00000  -0.03393
   C      0.72671   2.47486   0.00000   0.00000   0.00000   0.01818
   C      3.53414   2.47486  -0.00000   0.00000  -0.00000   0.01818
   C      1.44741   3.69694   0.00000   0.00000   0.00000  -0.00238
   C      2.81343   3.69694   0.00000   0.00000   0.00000  -0.00238
   H      0.92187   4.65279  -0.00000   0.00000   0.00000  -0.01641
   H      3.33897   4.65279  -0.00000   0.00000  -0.00000  -0.01641
PRIMCOORD 18
     18   1
   H      0.92187  -4.65279  -0.00000   0.02048  -0.03522  -0.00000
   H      3.33897  -4.65279  -0.00000   0.02048   0.03522   0.00000
   C      1.44741  -3.69694  -0.00000  -0.00456  -0.02096   0.00000
   C      2.81343  -3.69694  -0.00000  -0.00456   0.02096  -0.00000
   C      0.72671  -2.47486  -0.00000  -0.00388  -0.01506  -0.00000
   C      3.53414  -2.47486  -0.00000  -0.00388   0.01506   0.00000
   C      1.41020  -1.24850   0.00000   0.00234  -0.00991  -0.00000
   C      2.85065  -1.24850  -0.00000   0.00234   0.00991  -0.00000
   C      0.70556   0.00000   0.00000   0.00830   0.00000   0.00000
   C      3.55529  -0.00000   0.00000   0.00830   0.00000   0.00000
   C      1.41020   1.24850  -0.00000   0.00234   0.00991  -0.00000
   C      2.85065   1.24850   0.00000   0.00234  -0.00991  -0.00000
   C      0.72671   2.47486   0.00000  -0.00388   0.01506   0.00000
   C      3.53414   2.47486  -0.00000  -0.00388  -0.01506  -0.00000
   C      1.44741   3.69694   0.00000  -0.00456   0.02096  -0.00000
   C      2.81343   3.69694   0.00000  -0.00456  -0.02096   0.00000
   H      0.92187   4.65279  -0.00000   0.02048   0.03522  -0.00000
   H      3.33897   4.65279  -0.00000   0.02048  -0.03522   0.00000
PRIMCOORD 19
     18   1
   H      0.92187  -4.65279  -0.00000   0.00000   0.00000   0.03872
   H      3.33897  -4.65279  -0.00000   0.00000   0.00000  -0.03872
   C      1.44741  -3.69694  -0.00000   0.00000   0.00000   0.00855
   C      2.81343  -3.69694  -0.00000   0.00000   0.00000  -0.00855
   C      0.72671  -2.47486  -0.00000  -0.00000  -0.00000  -0.02347
   C      3.53414  -2.47486  -0.00000  -0.00000   0.00000   0.02347
   C      1.41020  -1.24850   0.00000  -0.00000   0.00000  -0.00250
   C      2.85065  -1.24850  -0.00000  -0.00000  -0.00000   0.00250
   C      0.70556   0.00000   0.00000  -0.00000   0.00000   0.02721
   C      3.55529  -0.00000   0.00000  -0.00000  -0.00000  -0.02721
   C      1.41020   1.24850  -0.00000   0.00000   0.00000  -0.00250
   C      2.85065   1.24850   0.00000   0.00000  -0.00000   0.00250
   C      0.72671   2.47486   0.00000   0.00000   0.00000  -0.02347
   C      3.53414   2.47486  -0.00000   0.00000  -0.00000   0.02347
   C      1.44741   3.69694   0.00000  -0.00000   0.00000   0.00855
   C      2.81343   3.69694   0.00000  -0.00000  -0.00000  -0.00855
   H      0.92187   4.65279  -0.00000  -0.00000  -0.00000   0.03872
   H      3.33897   4.65279  -0.00000  -0.00000   0.00000  -0.03872
PRIMCOORD 20
     18   1
   H      0.92187  -4.65279  -0.00000  -0.01082  -0.02455  -0.00000
   H      3.33897  -4.65279  -0.00000   0.01082  -0.02455  -0.00000
   C      1.44741  -3.69694  -0.00000  -0.00043  -0.02969   0.00000
   C      2.81343  -3.69694  -0.00000   0.00043  -0.02969   0.00000
   C      0.72671  -2.47486  -0.00000   0.00473  -0.00383   0.00000
   C      3.53414  -2.47486  -0.00000  -0.00473  -0.00383  -0.00000
   C      1.41020  -1.24850   0.00000  -0.00515   0.01936  -0.00000
   C      2.85065  -1.24850  -0.00000   0.00515   0.01936   0.00000
   C      0.70556   0.00000   0.00000   0.00000   0.03032   0.00000
   C      3.55529  -0.00000   0.00000   0.00000   0.03032  -0.00000
   C      1.41020   1.24850  -0.00000   0.00515   0.01936  -0.00000
   C      2.85065   1.24850   0.00000  -0.00515   0.01936   0.00000
   C      0.72671   2.47486   0.00000  -0.00473  -0.00383  -0.00000
   C      3.53414   2.47486  -0.00000   0.00473  -0.00383   0.00000
   C      1.44741   3.69694   0.00000   0.00043  -0.02969   0.00000
   C      2.81343   3.69694   0.00000  -0.00043  -0.02969  -0.00000
   H      0.92187   4.65279  -0.00000   0.01082  -0.02455  -0.00000
   H      3.33897   4.65279  -0.00000  -0.01082  -0.02455  -0.00000
PRIMCOORD 21
     18   1
   H      0.92187  -4.65279  -0.00000   0.03046   0.00107  -0.00000
   H      3.33897  -4.65279  -0.00000   0.03046  -0.00107  -0.00000
   C      1.44741  -3.69694  -0.00000   0.02092   0.00675   0.00000
   C      2.81343  -3.69694  -0.00000   0.02092  -0.00675   0.00000
   C      0.72671  -2.47486  -0.00000  -0.01353  -0.00024  -0.00000
   C      3.53414  -2.47486  -0.00000  -0.01353   0.00024  -0.00000
   C      1.41020  -1.24850   0.00000  -0.02847   0.00519   0.00000
   C      2.85065  -1.24850  -0.00000  -0.02847  -0.00519   0.00000
   C      0.70556   0.00000   0.00000   0.00000   0.01159  -0.00000
   C      3.55529  -0.00000   0.00000  -0.00000  -0.01159   0.00000
   C      1.41020   1.24850  -0.00000   0.02847   0.00519   0.00000
   C      2.85065   1.24850   0.00000   0.02847  -0.00519  -0.00000
   C      0.72671   2.47486   0.00000   0.01353  -0.00024   0.00000
   C      3.53414   2.47486  -0.00000   0.01353   0.00024  -0.00000
   C      1.44741   3.69694   0.00000  -0.02092   0.00675  -0.00000
   C      2.81343   3.69694   0.00000  -0.02092  -0.00675  -0.00000
   H      0.92187   4.65279  -0.00000  -0.03046   0.00107   0.00000
   H      3.33897   4.65279  -0.00000  -0.03046  -0.00107   0.00000
PRIMCOORD 22
     18   1
   H      0.92187  -4.65279  -0.00000  -0.00000  -0.00000  -0.04919
   H      3.33897  -4.65279  -0.00000  -0.00000   0.00000  -0.04919
   C      1.44741  -3.69694  -0.00000  -0.00000  -0.00000   0.00790
   C      2.81343  -3.69694  -0.00000  -0.00000   0.00000   0.00790
   C      0.72671  -2.47486  -0.00000   0.00000  -0.00000  -0.00424
   C      3.53414  -2.47486  -0.00000   0.00000  -0.00000  -0.00424
   C      1.41020  -1.24850   0.00000   0.00000  -0.00000   0.00048
   C      2.85065  -1.24850  -0.00000   0.00000   0.00000   0.00048
   C      0.70556   0.00000   0.00000  -0.00000  -0.00000  -0.00000
   C      3.55529  -0.00000   0.00000  -0.00000   0.00000   0.00000
   C      1.41020   1.24850  -0.00000  -0.00000  -0.00000  -0.00048
   C      2.85065   1.24850   0.00000  -0.00000   0.00000  -0.00048
   C      0.72671   2.47486   0.00000  -0.00000   0.00000   0.00424
   C      3.53414   2.47486  -0.00000  -0.00000  -0.00000   0.00424
   C      1.44741   3.69694   0.00000   0.00000  -0.00000  -0.00790
   C      2.81343   3.69694   0.00000   0.00000   0.00000  -0.00790
   H      0.92187   4.65279  -0.00000   0.00000  -0.00000   0.04919
   H      3.33897   4.65279  -0.00000   0.00000   0.00000   0.04919
PRIMCOORD 23
     18   1
   H      0.92187  -4.65279  -0.00000  -0.00000   0.00000  -0.04923
   H      3.33897  -4.65279  -0.00000  -0.00000  -0.00000  -0.04923
   C      1.44741  -3.69694  -0.00000  -0.00000   0.00000   0.00778
   C      2.81343  -3.69694  -0.00000  -0.00000   0.00000   0.00778
   C      0.72671  -2.47486  -0.00000   0.00000  -0.00000  -0.00397
   C      3.53414  -2.47486  -0.00000   0.00000  -0.00000  -0.00397
   C      1.41020  -1.24850   0.00000   0.00000  -0.00000  -0.00018
   C      2.85065  -1.24850  -0.00000   0.00000  -0.00000  -0.00018
   C      0.70556   0.00000   0.00000  -0.00000  -0.00000   0.00086
   C      3.55529  -0.00000   0.00000  -0.00000   0.00000   0.00086
   C      1.41020   1.24850  -0.00000  -0.00000  -0.00000  -0.00018
   C      2.85065   1.24850   0.00000  -0.00000   0.00000  -0.00018
   C      0.72671   2.47486   0.00000  -0.00000   0.00000  -0.00397
   C      3.53414   2.47486  -0.00000  -0.00000   0.00000  -0.00397
   C      1.44741   3.69694   0.00000   0.00000   0.00000   0.00778
   C      2.81343   3.69694   0.00000   0.00000   0.00000   0.00778
   H      0.92187   4.65279  -0.00000   0.00000   0.00000  -0.04923
   H      3.33897   4.65279  -0.00000   0.00000  -0.00000  -0.04923
PRIMCOORD 24
     18   1
   H      0.92187  -4.65279  -0.00000  -0.00000   0.00000   0.03475
   H      3.33897  -4.65279  -0.00000   0.00000  -0.00000  -0.03475
   C      1.44741  -3.69694  -0.00000  -0.00000  -0.00000   0.00496
   C      2.81343  -3.69694  -0.00000  -0.00000  -0.00000  -0.00496
   C      0.72671  -2.47486  -0.00000   0.00000   0.00000  -0.02561
   C      3.53414  -2.47486  -0.00000  -0.00000  -0.00000   0.02561
   C      1.41020  -1.24850   0.00000   0.00000   0.00000   0.02473
   C      2.85065  -1.24850  -0.00000  -0.00000   0.00000  -0.02473
   C      0.70556   0.00000   0.00000  -0.00000   0.00000  -0.00000
   C      3.55529  -0.00000   0.00000   0.00000   0.00000  -0.00000
   C      1.41020   1.24850  -0.00000  -0.00000  -0.00000  -0.02473
   C      2.85065   1.24850   0.00000  -0.00000   0.00000   0.02473
   C      0.72671   2.47486   0.00000  -0.00000  -0.00000   0.02561
   C      3.53414   2.47486  -0.00000  -0.00000  -0.00000  -0.02561
   C      1.44741   3.69694   0.00000  -0.00000  -0.00000  -0.00496