[Molden Format]
[FREQ]
    0.00
   24.83
   47.42
   73.07
  173.76
  342.18
  350.67
  353.01
  386.35
  530.36
  536.84
  540.11
  560.00
  651.00
  730.44
  732.31
  740.51
  762.70
  826.21
  846.49
  912.01
  912.45
  938.44
 1078.75
 1086.15
 1090.53
 1143.41
 1249.71
 1261.41
 1268.31
 1320.98
 1350.99
 1365.58
 1407.01
 1469.36
 1497.69
 1549.12
 1657.34
 3202.56
 3202.96
 3243.90
 3244.23
[FR-COORD]
   H           2.27149       -6.48742        0.00000
   H           5.78034       -6.48742        0.00000
   C           1.27586       -4.68329        0.00000
   C           6.77597       -4.68329        0.00000
   C           2.68562       -2.33626        0.00000
   C           5.36621       -2.33626        0.00000
   C           1.37043       -0.00000       -0.00000
   C           6.68140        0.00000       -0.00000
   C           2.68562        2.33626       -0.00000
   C           5.36621        2.33626       -0.00000
   C           1.27586        4.68329        0.00000
   C           6.77597        4.68329        0.00000
   H           2.27149        6.48742       -0.00000
   H           5.78034        6.48742        0.00000
[FR-NORM-COORD]
 vibration     1
   0.00000  -0.00000  -0.26271
   0.00000  -0.00000  -0.26271
   0.00000  -0.00000  -0.26689
   0.00000  -0.00000  -0.26689
   0.00000  -0.00000  -0.27030
   0.00000  -0.00000  -0.27030
   0.00000  -0.00000  -0.27089
   0.00000  -0.00000  -0.27089
   0.00000  -0.00000  -0.27030
   0.00000  -0.00000  -0.27030
   0.00000  -0.00000  -0.26689
   0.00000  -0.00000  -0.26689
   0.00000  -0.00000  -0.26271
   0.00000  -0.00000  -0.26271
 vibration     2
   0.00000   0.00000   0.38737
   0.00000   0.00000   0.38737
   0.00000   0.00000   0.28242
   0.00000   0.00000   0.28242
   0.00000   0.00000   0.14206
   0.00000   0.00000   0.14206
   0.00000   0.00000   0.00000
   0.00000   0.00000   0.00000
   0.00000   0.00000  -0.14206
   0.00000   0.00000  -0.14206
   0.00000   0.00000  -0.28242
   0.00000   0.00000  -0.28242
   0.00000   0.00000  -0.38737
   0.00000   0.00000  -0.38737
 vibration     3
  -0.26972   0.00185   0.00000
  -0.26972  -0.00185   0.00000
  -0.27063   0.00144   0.00000
  -0.27063  -0.00144  -0.00000
  -0.26458   0.00076  -0.00000
  -0.26458  -0.00076  -0.00000
  -0.26076  -0.00000  -0.00000
  -0.26076  -0.00000  -0.00000
  -0.26458  -0.00076  -0.00000
  -0.26458   0.00076  -0.00000
  -0.27063  -0.00144  -0.00000
  -0.27063   0.00144  -0.00000
  -0.26972  -0.00185  -0.00000
  -0.26972   0.00185  -0.00000
 vibration     4
   0.00179   0.26583  -0.00000
  -0.00179   0.26583  -0.00000
  -0.00016   0.26459  -0.00000
   0.00016   0.26459  -0.00000
  -0.00086   0.26914  -0.00000
   0.00086   0.26914  -0.00000
  -0.00000   0.27161  -0.00000
  -0.00000   0.27161  -0.00000
   0.00086   0.26914  -0.00000
  -0.00086   0.26914   0.00000
   0.00016   0.26459   0.00000
  -0.00016   0.26459   0.00000
  -0.00179   0.26583   0.00000
   0.00179   0.26583   0.00000
 vibration     5
   0.00000   0.00000  -0.42754
   0.00000   0.00000  -0.42754
   0.00000   0.00000  -0.18175
   0.00000   0.00000  -0.18175
   0.00000   0.00000   0.10801
   0.00000   0.00000   0.10801
   0.00000   0.00000   0.21217
   0.00000  -0.00000   0.21217
   0.00000   0.00000   0.10801
   0.00000   0.00000   0.10801
   0.00000   0.00000  -0.18175
   0.00000  -0.00000  -0.18175
  -0.00000   0.00000  -0.42754
  -0.00000  -0.00000  -0.42754
 vibration     6
   0.00000   0.00000   0.43034
   0.00000  -0.00000  -0.43034
   0.00000  -0.00000   0.21794
   0.00000  -0.00000  -0.21794
   0.00000   0.00000   0.13158
   0.00000  -0.00000  -0.13158
   0.00000  -0.00000   0.00000
   0.00000  -0.00000  -0.00000
  -0.00000   0.00000  -0.13158
  -0.00000  -0.00000   0.13158
  -0.00000  -0.00000  -0.21794
  -0.00000  -0.00000   0.21794
  -0.00000   0.00000  -0.43034
  -0.00000   0.00000   0.43034
 vibration     7
  -0.35311  -0.04252   0.00000
  -0.35311   0.04252   0.00000
  -0.30256  -0.01354   0.00000
  -0.30256   0.01354   0.00000
  -0.17645  -0.02507  -0.00000
  -0.17645   0.02507  -0.00000
  -0.00000   0.00578  -0.00000
  -0.00000  -0.00578   0.00000
   0.17645  -0.02507   0.00000
   0.17645   0.02507   0.00000
   0.30256  -0.01354  -0.00000
   0.30256   0.01354   0.00000
   0.35311  -0.04252  -0.00000
   0.35311   0.04252  -0.00000
 vibration     8
   0.00000   0.00000   0.43635
   0.00000  -0.00000   0.43635
   0.00000   0.00000   0.06775
   0.00000  -0.00000   0.06775
   0.00000   0.00000  -0.23454
   0.00000  -0.00000  -0.23454
  -0.00000  -0.00000   0.00000
  -0.00000   0.00000  -0.00000
  -0.00000   0.00000   0.23454
  -0.00000  -0.00000   0.23454
  -0.00000   0.00000  -0.06775
  -0.00000  -0.00000  -0.06775
  -0.00000   0.00000  -0.43635
  -0.00000  -0.00000  -0.43635
 vibration     9
  -0.00000  -0.00000   0.41289
  -0.00000   0.00000  -0.41289
  -0.00000   0.00000   0.21766
  -0.00000   0.00000  -0.21766
  -0.00000  -0.00000   0.15664
  -0.00000   0.00000  -0.15664
   0.00000   0.00000   0.12335
   0.00000   0.00000  -0.12335
   0.00000  -0.00000   0.15664
   0.00000   0.00000  -0.15664
   0.00000  -0.00000   0.21766
   0.00000   0.00000  -0.21766
   0.00000   0.00000   0.41289
   0.00000   0.00000  -0.41289
 vibration    10
   0.00000  -0.00000  -0.39991
   0.00000  -0.00000  -0.39991
   0.00000  -0.00000   0.00330
  -0.00000  -0.00000   0.00330
  -0.00000  -0.00000   0.19251
   0.00000  -0.00000   0.19251
   0.00000   0.00000  -0.32559
  -0.00000  -0.00000  -0.32559
   0.00000   0.00000   0.19251
   0.00000   0.00000   0.19251
   0.00000   0.00000   0.00330
  -0.00000   0.00000   0.00330
  -0.00000   0.00000  -0.39991
  -0.00000   0.00000  -0.39991
 vibration    11
   0.06281  -0.30910   0.00000
  -0.06281  -0.30910   0.00000
   0.00735  -0.33610  -0.00000
  -0.00735  -0.33610   0.00000
  -0.02676  -0.19045  -0.00000
   0.02676  -0.19045  -0.00000
   0.03191   0.00000   0.00000
  -0.03191  -0.00000   0.00000
  -0.02676   0.19045  -0.00000
   0.02676   0.19045  -0.00000
   0.00735   0.33610  -0.00000
  -0.00735   0.33610   0.00000
   0.06281   0.30910   0.00000
  -0.06281   0.30910   0.00000
 vibration    12
  -0.21844  -0.33290  -0.00000
  -0.21844   0.33290  -0.00000
   0.02095  -0.19726  -0.00000
   0.02095   0.19726   0.00000
   0.04548  -0.18203   0.00000
   0.04548   0.18203   0.00000
   0.00000  -0.18391  -0.00000
  -0.00000   0.18391  -0.00000
  -0.04548  -0.18203   0.00000
  -0.04548   0.18203   0.00000
  -0.02095  -0.19726  -0.00000
  -0.02095   0.19726   0.00000
   0.21844  -0.33290  -0.00000
   0.21844   0.33290  -0.00000
 vibration    13
  -0.00000  -0.00000   0.38710
  -0.00000  -0.00000  -0.38710
  -0.00000  -0.00000   0.14607
  -0.00000  -0.00000  -0.14607
  -0.00000  -0.00000  -0.16025
   0.00000  -0.00000   0.16025
   0.00000  -0.00000  -0.32601
   0.00000   0.00000   0.32601
  -0.00000   0.00000  -0.16025
   0.00000   0.00000   0.16025
  -0.00000   0.00000   0.14607
  -0.00000   0.00000  -0.14607
   0.00000   0.00000   0.38710
  -0.00000   0.00000  -0.38710
 vibration    14
   0.37000   0.19780   0.00000
   0.37000  -0.19780  -0.00000
   0.16694   0.08088   0.00000
   0.16694  -0.08088  -0.00000
  -0.09137   0.07866  -0.00000
  -0.09137  -0.07866   0.00000
  -0.22374  -0.00000   0.00000
  -0.22374   0.00000   0.00000
  -0.09137  -0.07866   0.00000
  -0.09137   0.07866  -0.00000
   0.16694  -0.08088   0.00000
   0.16694   0.08088  -0.00000
   0.37000  -0.19780   0.00000
   0.37000   0.19780  -0.00000
 vibration    15
  -0.00000   0.00000   0.48923
   0.00000  -0.00000   0.48923
  -0.00000   0.00000  -0.08192
  -0.00000  -0.00000  -0.08192
  -0.00000   0.00000   0.05799
   0.00000  -0.00000   0.05799
   0.00000   0.00000  -0.03394
   0.00000   0.00000  -0.03394
   0.00000  -0.00000   0.05799
   0.00000   0.00000   0.05799
  -0.00000  -0.00000  -0.08192
   0.00000   0.00000  -0.08192
   0.00000  -0.00000   0.48923
   0.00000   0.00000   0.48923
 vibration    16
  -0.00000  -0.00000   0.38635
  -0.00000   0.00000  -0.38635
   0.00000  -0.00000   0.11466
   0.00000   0.00000  -0.11466
   0.00000  -0.00000  -0.29595
  -0.00000   0.00000   0.29595
  -0.00000  -0.00000  -0.00000
  -0.00000   0.00000  -0.00000
  -0.00000   0.00000   0.29595
  -0.00000  -0.00000  -0.29595
   0.00000   0.00000  -0.11466
   0.00000  -0.00000   0.11466
  -0.00000   0.00000  -0.38635
  -0.00000  -0.00000   0.38635
 vibration    17
   0.00000   0.00000   0.49027
  -0.00000  -0.00000   0.49027
  -0.00000   0.00000  -0.08289
  -0.00000  -0.00000  -0.08289
   0.00000   0.00000   0.05260
   0.00000  -0.00000   0.05260
   0.00000  -0.00000   0.00000
   0.00000  -0.00000   0.00000
   0.00000   0.00000  -0.05260
   0.00000   0.00000  -0.05260
  -0.00000  -0.00000   0.08289
  -0.00000   0.00000   0.08289
  -0.00000  -0.00000  -0.49027
   0.00000   0.00000  -0.49027
 vibration    18
  -0.11821  -0.37707   0.00000
  -0.11821   0.37707   0.00000
   0.11392  -0.24561  -0.00000
   0.11392   0.24561  -0.00000
  -0.04362  -0.10019   0.00000
  -0.04362   0.10019  -0.00000
  -0.13116  -0.00000   0.00000
  -0.13116  -0.00000  -0.00000
  -0.04362   0.10019  -0.00000
  -0.04362  -0.10019   0.00000
   0.11392   0.24561   0.00000
   0.11392  -0.24561  -0.00000
  -0.11821   0.37707   0.00000
  -0.11821  -0.37707  -0.00000
 vibration    19
  -0.13356   0.23579   0.00000
   0.13356   0.23579  -0.00000
   0.00191   0.30334   0.00000
  -0.00191   0.30334  -0.00000
  -0.02743  -0.13505  -0.00000
   0.02743  -0.13505   0.00000
   0.00000  -0.36209  -0.00000
   0.00000  -0.36209   0.00000
   0.02743  -0.13505   0.00000
  -0.02743  -0.13505   0.00000
  -0.00191   0.30334  -0.00000
   0.00191   0.30334   0.00000
   0.13356   0.23579  -0.00000
  -0.13356   0.23579   0.00000
 vibration    20
  -0.00000   0.00000  -0.25098
   0.00000   0.00000   0.25098
   0.00000   0.00000  -0.06616
   0.00000   0.00000   0.06616
  -0.00000  -0.00000   0.31079
  -0.00000  -0.00000  -0.31079
  -0.00000  -0.00000  -0.41483
   0.00000  -0.00000   0.41483
   0.00000  -0.00000   0.31079
  -0.00000   0.00000  -0.31079
  -0.00000  -0.00000  -0.06616
   0.00000   0.00000   0.06616
  -0.00000   0.00000  -0.25098
   0.00000   0.00000   0.25098
 vibration    21
  -0.00000  -0.00000   0.49159
  -0.00000  -0.00000  -0.49159
   0.00000  -0.00000  -0.09000
  -0.00000  -0.00000   0.09000
  -0.00000   0.00000   0.01552
  -0.00000  -0.00000  -0.01552
  -0.00000   0.00000   0.00205
   0.00000   0.00000  -0.00205
   0.00000   0.00000   0.01552
  -0.00000   0.00000  -0.01552
   0.00000   0.00000  -0.09000
   0.00000  -0.00000   0.09000
   0.00000  -0.00000   0.49159
  -0.00000  -0.00000  -0.49159
 vibration    22
  -0.00000  -0.00000   0.49108
   0.00000   0.00000  -0.49108
  -0.00000  -0.00000  -0.09227
   0.00000  -0.00000   0.09227
   0.00000   0.00000   0.01805
   0.00000   0.00000  -0.01805
   0.00000   0.00000  -0.00000
  -0.00000   0.00000   0.00000
  -0.00000  -0.00000  -0.01805
  -0.00000  -0.00000   0.01805
  -0.00000   0.00000   0.09227
   0.00000  -0.00000  -0.09227
   0.00000  -0.00000  -0.49108
  -0.00000  -0.00000   0.49108
 vibration    23
   0.34987   0.01091   0.00000
   0.34987  -0.01091  -0.00000
   0.14864  -0.10688  -0.00000
   0.14864   0.10688   0.00000
  -0.30279  -0.01252  -0.00000
  -0.30279   0.01252   0.00000
   0.00000   0.06512   0.00000
   0.00000  -0.06512  -0.00000
   0.30279  -0.01252  -0.00000
   0.30279   0.01252   0.00000
  -0.14864  -0.10688   0.00000
  -0.14864   0.10688   0.00000
  -0.34987   0.01091  -0.00000
  -0.34987  -0.01091   0.00000
 vibration    24
  -0.39528  -0.16616  -0.00000
   0.39528  -0.16616   0.00000
  -0.05481   0.02690   0.00000
   0.05481   0.02690  -0.00000
   0.24680  -0.02961   0.00000
  -0.24680  -0.02961  -0.00000
   0.00000   0.03551  -0.00000
  -0.00000   0.03551   0.00000
  -0.24680  -0.02961   0.00000
   0.24680  -0.02961  -0.00000
   0.05481   0.02690   0.00000
  -0.05481   0.02690   0.00000
   0.39528  -0.16616  -0.00000
  -0.39528  -0.16616   0.00000
 vibration    25
  -0.32569  -0.31193  -0.00000
  -0.32569   0.31193  -0.00000
   0.01468  -0.11544   0.00000
   0.01468   0.11544   0.00000
   0.03072   0.11998   0.00000
   0.03072  -0.11998   0.00000
   0.00000   0.18836   0.00000
  -0.00000  -0.18836   0.00000
  -0.03072   0.11998   0.00000
  -0.03072  -0.11998   0.00000
  -0.01468  -0.11544   0.00000
  -0.01468   0.11544   0.00000
   0.32569  -0.31193   0.00000
   0.32569   0.31193   0.00000
 vibration    26
   0.38185   0.04289   0.00000
  -0.38185   0.04289   0.00000
   0.05473  -0.13651   0.00000
  -0.05473  -0.13651   0.00000
  -0.07676   0.24384  -0.00000
   0.07676   0.24384  -0.00000
  -0.17531   0.00000  -0.00000
   0.17531  -0.00000   0.00000
  -0.07676  -0.24384   0.00000
   0.07676  -0.24384   0.00000
   0.05473   0.13651  -0.00000
  -0.05473   0.13651   0.00000
   0.38185  -0.04289  -0.00000
  -0.38185  -0.04289  -0.00000
 vibration    27
  -0.40070  -0.19195   0.00000
  -0.40070   0.19195   0.00000
  -0.01495   0.02947  -0.00000
  -0.01495  -0.02947   0.00000
   0.15248   0.08100  -0.00000
   0.15248  -0.08100   0.00000
  -0.20828  -0.00000   0.00000
  -0.20828   0.00000  -0.00000
   0.15248  -0.08100  -0.00000
   0.15248   0.08100  -0.00000
  -0.01495  -0.02947   0.00000
  -0.01495   0.02947   0.00000
  -0.40070   0.19195  -0.00000
  -0.40070  -0.19195   0.00000
 vibration    28
  -0.41350  -0.26062  -0.00000
   0.41350  -0.26062  -0.00000
  -0.02013  -0.03243  -0.00000
   0.02013  -0.03243  -0.00000
   0.05042   0.07737  -0.00000
  -0.05042   0.07737   0.00000
   0.04715   0.00000  -0.00000
  -0.04715   0.00000  -0.00000
   0.05042  -0.07737  -0.00000
  -0.05042  -0.07737   0.00000
  -0.02013   0.03243  -0.00000
   0.02013   0.03243  -0.00000
  -0.41350   0.26062  -0.00000
   0.41350   0.26062   0.00000
 vibration    29
  -0.39674  -0.18126  -0.00000
   0.39674  -0.18126  -0.00000
  -0.01295   0.03593   0.00000
   0.01295   0.03593   0.00000
  -0.10073  -0.06101  -0.00000
   0.10073  -0.06101   0.00000
  -0.29804   0.00000  -0.00000
   0.29804   0.00000  -0.00000
  -0.10073   0.06101   0.00000
   0.10073   0.06101   0.00000
  -0.01295  -0.03593   0.00000
   0.01295  -0.03593  -0.00000
  -0.39674   0.18126   0.00000
   0.39674   0.18126   0.00000
 vibration    30
  -0.43751  -0.20723  -0.00000
   0.43751  -0.20723   0.00000
  -0.03877   0.01912   0.00000
   0.03877   0.01912  -0.00000
  -0.09231  -0.04321   0.00000
   0.09231  -0.04321  -0.00000
   0.00000   0.08227   0.00000
  -0.00000   0.08227   0.00000
   0.09231  -0.04321   0.00000
  -0.09231  -0.04321   0.00000
   0.03877   0.01912  -0.00000
  -0.03877   0.01912  -0.00000
   0.43751  -0.20723  -0.00000
  -0.43751  -0.20723  -0.00000
 vibration    31
   0.34715   0.25781   0.00000
  -0.34715   0.25781  -0.00000
  -0.00836   0.05032   0.00000
   0.00836   0.05032  -0.00000
   0.01529  -0.18553   0.00000
  -0.01529  -0.18553   0.00000
   0.00000   0.22699   0.00000
   0.00000   0.22699  -0.00000
  -0.01529  -0.18553   0.00000
   0.01529  -0.18553   0.00000
   0.00836   0.05032   0.00000
  -0.00836   0.05032   0.00000
  -0.34715   0.25781  -0.00000
   0.34715   0.25781   0.00000
 vibration    32
  -0.39159  -0.24538   0.00000
  -0.39159   0.24538   0.00000
   0.06421   0.00887   0.00000
   0.06421  -0.00887   0.00000
  -0.09210   0.12769  -0.00000
  -0.09210  -0.12769  -0.00000
   0.12215  -0.00000  -0.00000
   0.12215   0.00000   0.00000
  -0.09210  -0.12769  -0.00000
  -0.09210   0.12769   0.00000
   0.06421  -0.00887   0.00000
   0.06421   0.00887   0.00000
  -0.39159   0.24538  -0.00000
  -0.39159  -0.24538  -0.00000
 vibration    33
  -0.44390  -0.18851  -0.00000
  -0.44390   0.18851  -0.00000
   0.06972   0.09691  -0.00000
   0.06972  -0.09691  -0.00000
  -0.04694  -0.01624   0.00000
  -0.04694   0.01624   0.00000
  -0.00000  -0.03731   0.00000
  -0.00000   0.03731  -0.00000
   0.04694  -0.01624   0.00000
   0.04694   0.01624   0.00000
  -0.06972   0.09691   0.00000
  -0.06972  -0.09691   0.00000
   0.44390  -0.18851  -0.00000
   0.44390   0.18851  -0.00000
 vibration    34
  -0.41214  -0.11497   0.00000
  -0.41214   0.11497   0.00000
   0.07498   0.15392  -0.00000
   0.07498  -0.15392  -0.00000
  -0.03406  -0.19064   0.00000
  -0.03406   0.19064   0.00000
  -0.01450   0.00000   0.00000
  -0.01450  -0.00000   0.00000
  -0.03406   0.19064  -0.00000
  -0.03406  -0.19064   0.00000
   0.07498  -0.15392  -0.00000
   0.07498   0.15392  -0.00000
  -0.41214   0.11497   0.00000
  -0.41214  -0.11497  -0.00000
 vibration    35
   0.10232  -0.12198   0.00000
  -0.10232  -0.12198  -0.00000
   0.29153   0.00957  -0.00000
  -0.29153   0.00957  -0.00000
   0.33036  -0.05233   0.00000
  -0.33036  -0.05233   0.00000
  -0.23533  -0.00000  -0.00000
   0.23533   0.00000   0.00000
   0.33036   0.05233  -0.00000
  -0.33036   0.05233   0.00000
   0.29153  -0.00957  -0.00000
  -0.29153  -0.00957   0.00000
   0.10232   0.12198  -0.00000
  -0.10232   0.12198   0.00000
 vibration    36
   0.00430  -0.06138   0.00000
   0.00430   0.06138  -0.00000
  -0.00278  -0.07053   0.00000
  -0.00278   0.07053  -0.00000
  -0.04468   0.33112  -0.00000
  -0.04468  -0.33112   0.00000
   0.00000  -0.50911   0.00000
  -0.00000   0.50911   0.00000
   0.04468   0.33112  -0.00000
   0.04468  -0.33112   0.00000
   0.00278  -0.07053   0.00000
   0.00278   0.07053  -0.00000
  -0.00430  -0.06138   0.00000
  -0.00430   0.06138  -0.00000
 vibration    37
   0.17751   0.29941   0.00000
  -0.17751   0.29941  -0.00000
  -0.35281  -0.03139  -0.00000
   0.35281  -0.03139  -0.00000
  -0.02608   0.03384  -0.00000
   0.02608   0.03384  -0.00000
  -0.00000  -0.05587  -0.00000
   0.00000  -0.05587   0.00000
   0.02608   0.03384   0.00000
  -0.02608   0.03384  -0.00000
   0.35281  -0.03139  -0.00000
  -0.35281  -0.03139   0.00000
  -0.17751   0.29941  -0.00000
   0.17751   0.29941  -0.00000
 vibration    38
  -0.20600  -0.25558   0.00000
   0.20600  -0.25558  -0.00000
   0.29096   0.04761   0.00000
  -0.29096   0.04761  -0.00000
  -0.19339  -0.00064  -0.00000
   0.19339  -0.00064   0.00000
   0.18928  -0.00000   0.00000
  -0.18928   0.00000   0.00000
  -0.19339   0.00064   0.00000
   0.19339   0.00064  -0.00000
   0.29096  -0.04761   0.00000
  -0.29096  -0.04761   0.00000
  -0.20600   0.25558  -0.00000
   0.20600   0.25558   0.00000
 vibration    39
  -0.24437   0.43417   0.00000
  -0.24437  -0.43417  -0.00000
   0.02010  -0.03702   0.00000
   0.02010   0.03702  -0.00000
   0.00064   0.00010   0.00000
   0.00064  -0.00010  -0.00000
  -0.00000   0.00092  -0.00000
  -0.00000  -0.00092   0.00000
  -0.00064   0.00010  -0.00000
  -0.00064  -0.00010  -0.00000
  -0.02010  -0.03702  -0.00000
  -0.02010   0.03702  -0.00000
   0.24437   0.43417   0.00000
   0.24437  -0.43417   0.00000
 vibration    40
  -0.24425   0.43425   0.00000
  -0.24425  -0.43425   0.00000
   0.02005  -0.03691  -0.00000
   0.02005   0.03691   0.00000
   0.00065   0.00032  -0.00000
   0.00065  -0.00032  -0.00000
  -0.00043  -0.00000   0.00000
  -0.00043   0.00000  -0.00000
   0.00065  -0.00032   0.00000
   0.00065   0.00032   0.00000
   0.02005   0.03691   0.00000
   0.02005  -0.03691   0.00000
  -0.24425  -0.43425   0.00000
  -0.24425   0.43425  -0.00000
 vibration    41
  -0.24888   0.43144  -0.00000
   0.24888   0.43144  -0.00000
   0.02350  -0.03696  -0.00000
  -0.02350  -0.03696   0.00000
   0.00019   0.00047  -0.00000
  -0.00019   0.00047   0.00000
   0.00000   0.00050  -0.00000
  -0.00000   0.00050   0.00000
  -0.00019   0.00047   0.00000
   0.00019   0.00047  -0.00000
  -0.02350  -0.03696  -0.00000
   0.02350  -0.03696   0.00000
   0.24888   0.43144   0.00000
  -0.24888   0.43144  -0.00000
 vibration    42
   0.24892  -0.43142  -0.00000
  -0.24892  -0.43142   0.00000
  -0.02333   0.03703  -0.00000
   0.02333   0.03703   0.00000
  -0.00044  -0.00055   0.00000
   0.00044  -0.00055   0.00000
  -0.00010   0.00000  -0.00000
   0.00010   0.00000   0.00000
  -0.00044   0.00055  -0.00000
   0.00044   0.00055   0.00000
  -0.02333  -0.03703   0.00000
   0.02333  -0.03703  -0.00000
   0.24892   0.43142  -0.00000
  -0.24892   0.43142   0.00000
