
     Program PWSCF v.5.0.2 (svn rev. 10600) starts on  6Jul2014 at 15: 3:53 

     This program is part of the open-source Quantum ESPRESSO suite
     for quantum simulation of materials; please cite
         "P. Giannozzi et al., J. Phys.:Condens. Matter 21 395502 (2009);
          URL http://www.quantum-espresso.org", 
     in publications or presentations arising from this work. More details at
     http://www.quantum-espresso.org/quote

     Parallel version (MPI), running on     8 processors
     K-points division:     npool     =       2
     R & G space division:  proc/nbgrp/npool/nimage =       4
     Reading input from gar-w_03-2H-pw.in

     Current dimensions of program PWSCF are:
     Max number of different atomic species (ntypx) = 10
     Max number of k-points (npk) =  40000
     Max angular momentum in pseudopotentials (lmaxx) =  3
     Message from routine iosys:
     pot_extrapolation='second_order' not available, using 'atomic'
     Message from routine iosys:
     wfc_extrapolation='second_order' not available, using 'atomic'
               file H.pbe-vbc.UPF: wavefunction(s)  0S renormalized

     Subspace diagonalization in iterative solution of the eigenvalue problem:
     a serial algorithm will be used


     Parallelization info
     --------------------
     sticks:   dense  smooth     PW     G-vecs:    dense   smooth      PW
     Min         510     510    145                19326    19326    2918
     Max         511     511    146                19327    19327    2919
     Sum        2043    2043    581                77307    77307   11675



     bravais-lattice index     =            8
     lattice parameter (alat)  =       8.0518  a.u.
     unit-cell volume          =    2760.3463 (a.u.)^3
     number of atoms/cell      =           18
     number of atomic types    =            2
     number of electrons       =        48.00
     number of Kohn-Sham states=           24
     kinetic-energy cutoff     =      35.0000  Ry
     charge density cutoff     =     140.0000  Ry
     convergence threshold     =      1.0E-09
     mixing beta               =       0.5000
     number of iterations used =            8  plain     mixing
     Exchange-correlation      = SLA  PW   PBE  PBE ( 1  4  3  4 0)
     nstep                     =           50


     celldm(1)=   8.051830  celldm(2)=   2.816343  celldm(3)=   1.877562
     celldm(4)=   0.000000  celldm(5)=   0.000000  celldm(6)=   0.000000

     crystal axes: (cart. coord. in units of alat)
               a(1) = (   1.000000   0.000000   0.000000 )  
               a(2) = (   0.000000   2.816343   0.000000 )  
               a(3) = (   0.000000   0.000000   1.877562 )  

     reciprocal axes: (cart. coord. in units 2 pi/alat)
               b(1) = (  1.000000  0.000000  0.000000 )  
               b(2) = (  0.000000  0.355070  0.000000 )  
               b(3) = (  0.000000  0.000000  0.532606 )  


     PseudoPot. # 1 for C  read from file:
     ../PP_LIBRARY/C.pbe-mt_gipaw.UPF
     MD5 check sum: 5ac2f21f2c440b14befe521540822c15
     Pseudo is Norm-conserving, Zval =  4.0
     Generated by new atomic code, or converted to UPF format
     Using radial grid of 1073 points,  1 beta functions with: 
                l(1) =   0

     PseudoPot. # 2 for H  read from file:
     ../PP_LIBRARY/H.pbe-vbc.UPF
     MD5 check sum: 0ad67d0772b4eb71cad78a7d32695431
     Pseudo is Norm-conserving, Zval =  1.0
     Generated by new atomic code, or converted to UPF format
     Using radial grid of  325 points,  0 beta functions with: 

     atomic species   valence    mass     pseudopotential
        C              4.00    12.01070     C ( 1.00)
        H              1.00     1.00790     H ( 1.00)

      4 Sym. Ops., with inversion, found


                                    s                        frac. trans.

      isym =  1     identity                                     

 cryst.   s( 1) = (     1          0          0      )
                  (     0          1          0      )
                  (     0          0          1      )

 cart.    s( 1) = (  1.0000000  0.0000000  0.0000000 )
                  (  0.0000000  1.0000000  0.0000000 )
                  (  0.0000000  0.0000000  1.0000000 )


      isym =  2     180 deg rotation - cart. axis [0,1,0]        

 cryst.   s( 2) = (    -1          0          0      )
                  (     0          1          0      )
                  (     0          0         -1      )

 cart.    s( 2) = ( -1.0000000  0.0000000  0.0000000 )
                  (  0.0000000  1.0000000  0.0000000 )
                  (  0.0000000  0.0000000 -1.0000000 )


      isym =  3     inversion                                    

 cryst.   s( 3) = (    -1          0          0      )
                  (     0         -1          0      )
                  (     0          0         -1      )

 cart.    s( 3) = ( -1.0000000  0.0000000  0.0000000 )
                  (  0.0000000 -1.0000000  0.0000000 )
                  (  0.0000000  0.0000000 -1.0000000 )


      isym =  4     inv. 180 deg rotation - cart. axis [0,1,0]   

 cryst.   s( 4) = (     1          0          0      )
                  (     0         -1          0      )
                  (     0          0          1      )

 cart.    s( 4) = (  1.0000000  0.0000000  0.0000000 )
                  (  0.0000000 -1.0000000  0.0000000 )
                  (  0.0000000  0.0000000  1.0000000 )


     point group C_2h (2/m) 
     there are  4 classes
     the character table:

       E     C2    i     s_h  
A_g    1.00  1.00  1.00  1.00
B_g    1.00 -1.00  1.00 -1.00
A_u    1.00  1.00 -1.00 -1.00
B_u    1.00 -1.00 -1.00  1.00

     the symmetry operations in each class:
     E        1
     C2       2
     i        3
     s_h      4

   Cartesian axes

     site n.     atom                  positions (alat units)
         1           H   tau(   1) = (   0.1895399  -0.6561559   0.3021513  )
         2           H   tau(   2) = (   0.2909438  -0.7858019  -0.0773786  )
         3           H   tau(   3) = (   0.7090563  -0.7858019   0.0773786  )
         4           H   tau(   4) = (   0.8104601  -0.6561559  -0.3021513  )
         5           C   tau(   5) = (   0.1707597  -0.5960323   0.0492122  )
         6           C   tau(   6) = (   0.8292403  -0.5960323  -0.0492122  )
         7           C   tau(   7) = (   0.3358005  -0.2855743   0.0031211  )
         8           C   tau(   8) = (   0.6641995  -0.2855743  -0.0031211  )
         9           C   tau(   9) = (   0.1749705   0.0000000  -0.0001731  )
        10           C   tau(  10) = (   0.8250295   0.0000000   0.0001731  )
        11           C   tau(  11) = (   0.3358005   0.2855743   0.0031211  )
        12           C   tau(  12) = (   0.6641995   0.2855743  -0.0031211  )
        13           C   tau(  13) = (   0.1707597   0.5960323   0.0492122  )
        14           C   tau(  14) = (   0.8292403   0.5960323  -0.0492122  )
        15           H   tau(  15) = (  -0.1895399   0.6561559  -0.3021513  )
        16           H   tau(  16) = (  -0.2909438   0.7858019   0.0773786  )
        17           H   tau(  17) = (  -0.7090563   0.7858019  -0.0773786  )
        18           H   tau(  18) = (  -0.8104601   0.6561559   0.3021513  )

   Crystallographic axes

     site n.     atom                  positions (cryst. coord.)
         1           H   tau(   1) = (  0.1895399 -0.2329815  0.1609275  )
         2           H   tau(   2) = (  0.2909438 -0.2790150 -0.0412123  )
         3           H   tau(   3) = (  0.7090563 -0.2790150  0.0412123  )
         4           H   tau(   4) = (  0.8104601 -0.2329815 -0.1609275  )
         5           C   tau(   5) = (  0.1707597 -0.2116334  0.0262107  )
         6           C   tau(   6) = (  0.8292403 -0.2116334 -0.0262107  )
         7           C   tau(   7) = (  0.3358005 -0.1013990  0.0016623  )
         8           C   tau(   8) = (  0.6641995 -0.1013990 -0.0016623  )
         9           C   tau(   9) = (  0.1749705  0.0000000 -0.0000922  )
        10           C   tau(  10) = (  0.8250295  0.0000000  0.0000922  )
        11           C   tau(  11) = (  0.3358005  0.1013990  0.0016623  )
        12           C   tau(  12) = (  0.6641995  0.1013990 -0.0016623  )
        13           C   tau(  13) = (  0.1707597  0.2116334  0.0262107  )
        14           C   tau(  14) = (  0.8292403  0.2116334 -0.0262107  )
        15           H   tau(  15) = ( -0.1895399  0.2329815 -0.1609275  )
        16           H   tau(  16) = ( -0.2909438  0.2790150  0.0412123  )
        17           H   tau(  17) = ( -0.7090563  0.2790150 -0.0412123  )
        18           H   tau(  18) = ( -0.8104601  0.2329815  0.1609275  )

     number of k points=     2
                       cart. coord. in units 2pi/alat
        k(    1) = (   0.0000000   0.0000000   0.0000000), wk =   1.0000000
        k(    2) = (  -0.5000000   0.0000000   0.0000000), wk =   1.0000000

                       cryst. coord.
        k(    1) = (   0.0000000   0.0000000   0.0000000), wk =   1.0000000
        k(    2) = (  -0.5000000   0.0000000   0.0000000), wk =   1.0000000

     Dense  grid:    77307 G-vectors     FFT dimensions: (  32,  90,  60)

     Largest allocated arrays     est. size (Mb)     dimensions
        Kohn-Sham Wavefunctions         0.89 Mb     (    2434,   24)
        NL pseudopotentials             0.37 Mb     (    2434,   10)
        Each V/rho on FFT grid          0.66 Mb     (   43200)
        Each G-vector array             0.15 Mb     (   19326)
        G-vector shells                 0.05 Mb     (    5970)
     Largest temporary arrays     est. size (Mb)     dimensions
        Auxiliary wavefunctions         3.57 Mb     (    2434,   96)
        Each subspace H/S matrix        0.14 Mb     (      96,   96)
        Each <psi_i|beta_j> matrix      0.00 Mb     (      10,   24)
        Arrays for rho mixing           5.27 Mb     (   43200,    8)

     Initial potential from superposition of free atoms

     starting charge   42.99987, renormalised to   48.00000

     negative rho (up, down):  1.524E-07 0.000E+00
     Starting wfc are   88 randomized atomic wfcs

     total cpu time spent up to now is        6.6 secs

     per-process dynamical memory:    20.5 Mb

     Self-consistent Calculation

     iteration #  1     ecut=    35.00 Ry     beta=0.50
     Davidson diagonalization with overlap
     ethr =  1.00E-02,  avg # of iterations =  2.0

     total cpu time spent up to now is        7.9 secs

     total energy              =    -122.73587797 Ry
     Harris-Foulkes estimate   =    -123.52858583 Ry
     estimated scf accuracy    <       1.44188590 Ry

     iteration #  2     ecut=    35.00 Ry     beta=0.50
     Davidson diagonalization with overlap
     ethr =  3.00E-03,  avg # of iterations =  2.5

     total cpu time spent up to now is        9.4 secs

     total energy              =    -123.01794266 Ry
     Harris-Foulkes estimate   =    -123.08653978 Ry
     estimated scf accuracy    <       0.17807312 Ry

     iteration #  3     ecut=    35.00 Ry     beta=0.50
     Davidson diagonalization with overlap
     ethr =  3.71E-04,  avg # of iterations =  2.5

     total cpu time spent up to now is       11.0 secs

     total energy              =    -123.04356609 Ry
     Harris-Foulkes estimate   =    -123.04862988 Ry
     estimated scf accuracy    <       0.02472388 Ry

     iteration #  4     ecut=    35.00 Ry     beta=0.50
     Davidson diagonalization with overlap
     ethr =  5.15E-05,  avg # of iterations =  2.0

     total cpu time spent up to now is       11.8 secs

     total energy              =    -123.04562917 Ry
     Harris-Foulkes estimate   =    -123.04563145 Ry
     estimated scf accuracy    <       0.00079683 Ry

     iteration #  5     ecut=    35.00 Ry     beta=0.50
     Davidson diagonalization with overlap
     ethr =  1.66E-06,  avg # of iterations =  2.5

     total cpu time spent up to now is       13.1 secs

     total energy              =    -123.04578858 Ry
     Harris-Foulkes estimate   =    -123.04578959 Ry
     estimated scf accuracy    <       0.00006194 Ry

     iteration #  6     ecut=    35.00 Ry     beta=0.50
     Davidson diagonalization with overlap
     ethr =  1.29E-07,  avg # of iterations =  2.5

     total cpu time spent up to now is       17.1 secs

     total energy              =    -123.04579884 Ry
     Harris-Foulkes estimate   =    -123.04580330 Ry
     estimated scf accuracy    <       0.00001337 Ry

     iteration #  7     ecut=    35.00 Ry     beta=0.50
     Davidson diagonalization with overlap
     ethr =  2.79E-08,  avg # of iterations =  3.0

     total cpu time spent up to now is       20.8 secs

     total energy              =    -123.04580101 Ry
     Harris-Foulkes estimate   =    -123.04580101 Ry
     estimated scf accuracy    <       0.00000071 Ry

     iteration #  8     ecut=    35.00 Ry     beta=0.50
     Davidson diagonalization with overlap
     ethr =  1.49E-09,  avg # of iterations =  3.0

     total cpu time spent up to now is       25.7 secs

     total energy              =    -123.04580117 Ry
     Harris-Foulkes estimate   =    -123.04580127 Ry
     estimated scf accuracy    <       0.00000020 Ry

     iteration #  9     ecut=    35.00 Ry     beta=0.50
     Davidson diagonalization with overlap
     ethr =  4.27E-10,  avg # of iterations =  2.0

     total cpu time spent up to now is       29.4 secs

     total energy              =    -123.04580122 Ry
     Harris-Foulkes estimate   =    -123.04580122 Ry
     estimated scf accuracy    <       0.00000002 Ry

     iteration # 10     ecut=    35.00 Ry     beta=0.50
     Davidson diagonalization with overlap
     ethr =  3.68E-11,  avg # of iterations =  3.5

     total cpu time spent up to now is       31.8 secs

     total energy              =    -123.04580122 Ry
     Harris-Foulkes estimate   =    -123.04580122 Ry
     estimated scf accuracy    <          1.4E-09 Ry

     iteration # 11     ecut=    35.00 Ry     beta=0.50
     Davidson diagonalization with overlap
     ethr =  2.82E-12,  avg # of iterations =  2.0

     total cpu time spent up to now is       34.6 secs

     End of self-consistent calculation

          k = 0.0000 0.0000 0.0000 (  9697 PWs)   bands (ev):

   -19.4715 -18.0145 -16.2241 -14.2892 -13.9182 -13.1021 -13.0725 -11.6490
   -10.2034  -9.5845  -9.3852  -8.7246  -8.1362  -7.9841  -7.5076  -6.4358
    -6.0753  -5.7865  -5.6440  -5.4445  -4.1603  -4.0067  -2.7408  -1.5112

     occupation numbers 
     1.0000   1.0000   1.0000   1.0000   1.0000   1.0000   1.0000   1.0000
     1.0000   1.0000   1.0000   1.0000   1.0000   1.0000   1.0000   1.0000
     1.0000   1.0000   1.0000   1.0000   1.0000   1.0000   1.0000   1.0000

          k =-0.5000 0.0000 0.0000 (  9624 PWs)   bands (ev):

   -18.1439 -17.8558 -16.7793 -16.4157 -15.3813 -13.7195 -11.8413 -11.5643
    -9.1129  -8.4754  -8.3718  -8.1022  -7.1108  -6.9363  -6.9098  -6.8638
    -6.6231  -6.0668  -5.8343  -5.2993  -5.1992  -4.7671  -4.3357  -2.3570

     occupation numbers 
     1.0000   1.0000   1.0000   1.0000   1.0000   1.0000   1.0000   1.0000
     1.0000   1.0000   1.0000   1.0000   1.0000   1.0000   1.0000   1.0000
     1.0000   1.0000   1.0000   1.0000   1.0000   1.0000   1.0000   1.0000

     highest occupied level (ev):    -1.5112

!    total energy              =    -123.04580122 Ry
     Harris-Foulkes estimate   =    -123.04580122 Ry
     estimated scf accuracy    <          3.9E-10 Ry

     The total energy is the sum of the following terms:

     one-electron contribution =    -442.81772242 Ry
     hartree contribution      =     231.54082372 Ry
     xc contribution           =     -40.87352709 Ry
     ewald contribution        =     129.10462457 Ry

     convergence has been achieved in  11 iterations

     Forces acting on atoms (Ry/au):

     atom    1 type  2   force =     0.00000234   -0.00000363    0.00000362
     atom    2 type  2   force =     0.00000193    0.00000808    0.00000238
     atom    3 type  2   force =    -0.00000193    0.00000808   -0.00000238
     atom    4 type  2   force =    -0.00000234   -0.00000363   -0.00000362
     atom    5 type  1   force =     0.00000118    0.00000256    0.00000535
     atom    6 type  1   force =    -0.00000118    0.00000256   -0.00000535
     atom    7 type  1   force =     0.00000446   -0.00000078   -0.00000196
     atom    8 type  1   force =    -0.00000446   -0.00000078    0.00000196
     atom    9 type  1   force =     0.00000030    0.00000000   -0.00000649
     atom   10 type  1   force =    -0.00000030    0.00000000    0.00000649
     atom   11 type  1   force =     0.00000446    0.00000078   -0.00000196
     atom   12 type  1   force =    -0.00000446    0.00000078    0.00000196
     atom   13 type  1   force =     0.00000118   -0.00000256    0.00000535
     atom   14 type  1   force =    -0.00000118   -0.00000256   -0.00000535
     atom   15 type  2   force =    -0.00000234    0.00000363   -0.00000362
     atom   16 type  2   force =    -0.00000193   -0.00000808   -0.00000238
     atom   17 type  2   force =     0.00000193   -0.00000808    0.00000238
     atom   18 type  2   force =     0.00000234    0.00000363    0.00000362
     The non-local contrib.  to forces
     atom    1 type  2   force =     0.00000000    0.00000000    0.00000000
     atom    2 type  2   force =     0.00000000    0.00000000    0.00000000
     atom    3 type  2   force =     0.00000000    0.00000000    0.00000000
     atom    4 type  2   force =     0.00000000    0.00000000    0.00000000
     atom    5 type  1   force =    -0.03616240    0.09635859   -0.00695782
     atom    6 type  1   force =     0.03616240    0.09635859    0.00695782
     atom    7 type  1   force =    -0.09951528   -0.13316965    0.01765545
     atom    8 type  1   force =     0.09951528   -0.13316965   -0.01765545
     atom    9 type  1   force =    -0.18012020    0.00000000   -0.04253636
     atom   10 type  1   force =     0.18012020    0.00000000    0.04253636
     atom   11 type  1   force =    -0.09951528    0.13316965    0.01765545
     atom   12 type  1   force =     0.09951528    0.13316965   -0.01765545
     atom   13 type  1   force =    -0.03616240   -0.09635859   -0.00695782
     atom   14 type  1   force =     0.03616240   -0.09635859    0.00695782
     atom   15 type  2   force =     0.00000000    0.00000000    0.00000000
     atom   16 type  2   force =     0.00000000    0.00000000    0.00000000
     atom   17 type  2   force =     0.00000000    0.00000000    0.00000000
     atom   18 type  2   force =     0.00000000    0.00000000    0.00000000
     The ionic contribution  to forces
     atom    1 type  2   force =     0.17524631   -2.07781542    3.23989590
     atom    2 type  2   force =     0.80964018   -3.46708014   -1.31431238
     atom    3 type  2   force =    -0.80964018   -3.46708021    1.31431243
     atom    4 type  2   force =    -0.17524627   -2.07781542   -3.23989591
     atom    5 type  1   force =     0.70198361   -8.30475103    1.74966948
     atom    6 type  1   force =    -0.70198364   -8.30475097   -1.74966950
     atom    7 type  1   force =    -0.41411564   -4.25298991   -0.21701774
     atom    8 type  1   force =     0.41411564   -4.25298993    0.21701773
     atom    9 type  1   force =    -0.72400253    0.00000000   -0.15189656
     atom   10 type  1   force =     0.72400254   -0.00000000    0.15189656
     atom   11 type  1   force =    -0.41411564    4.25298991   -0.21701773
     atom   12 type  1   force =     0.41411564    4.25298993    0.21701774
     atom   13 type  1   force =     0.70198364    8.30475097    1.74966950
     atom   14 type  1   force =    -0.70198361    8.30475103   -1.74966948
     atom   15 type  2   force =    -0.17524631    2.07781542   -3.23989590
     atom   16 type  2   force =    -0.80964018    3.46708014    1.31431238
     atom   17 type  2   force =     0.80964018    3.46708021   -1.31431243
     atom   18 type  2   force =     0.17524627    2.07781542    3.23989591
     The local contribution  to forces
     atom    1 type  2   force =    -0.17524346    2.07781118   -3.23989121
     atom    2 type  2   force =    -0.80963727    3.46708748    1.31431430
     atom    3 type  2   force =     0.80963711    3.46708753   -1.31431433
     atom    4 type  2   force =     0.17524328    2.07781118    3.23989122
     atom    5 type  1   force =    -0.66581360    8.20839183   -1.74270538
     atom    6 type  1   force =     0.66581360    8.20839183    1.74270538
     atom    7 type  1   force =     0.51364578    4.38615482    0.19935969
     atom    8 type  1   force =    -0.51364578    4.38615482   -0.19935969
     atom    9 type  1   force =     0.90413539    0.00000000    0.19442608
     atom   10 type  1   force =    -0.90413536    0.00000000   -0.19442608
     atom   11 type  1   force =     0.51364578   -4.38615482    0.19935969
     atom   12 type  1   force =    -0.51364578   -4.38615482   -0.19935969
     atom   13 type  1   force =    -0.66581360   -8.20839183   -1.74270538
     atom   14 type  1   force =     0.66581360   -8.20839183    1.74270538
     atom   15 type  2   force =     0.17524346   -2.07781118    3.23989121
     atom   16 type  2   force =     0.80963727   -3.46708748   -1.31431430
     atom   17 type  2   force =    -0.80963711   -3.46708753    1.31431433
     atom   18 type  2   force =    -0.17524328   -2.07781118   -3.23989122
     The core correction contribution to forces
     atom    1 type  2   force =     0.00000000    0.00000000    0.00000000
     atom    2 type  2   force =     0.00000000    0.00000000    0.00000000
     atom    3 type  2   force =     0.00000000    0.00000000    0.00000000
     atom    4 type  2   force =     0.00000000    0.00000000    0.00000000
     atom    5 type  1   force =     0.00000000    0.00000000    0.00000000
     atom    6 type  1   force =     0.00000000    0.00000000    0.00000000
     atom    7 type  1   force =     0.00000000    0.00000000    0.00000000
     atom    8 type  1   force =     0.00000000    0.00000000    0.00000000
     atom    9 type  1   force =     0.00000000    0.00000000    0.00000000
     atom   10 type  1   force =     0.00000000    0.00000000    0.00000000
     atom   11 type  1   force =     0.00000000    0.00000000    0.00000000
     atom   12 type  1   force =     0.00000000    0.00000000    0.00000000
     atom   13 type  1   force =     0.00000000    0.00000000    0.00000000
     atom   14 type  1   force =     0.00000000    0.00000000    0.00000000
     atom   15 type  2   force =     0.00000000    0.00000000    0.00000000
     atom   16 type  2   force =     0.00000000    0.00000000    0.00000000
     atom   17 type  2   force =     0.00000000    0.00000000    0.00000000
     atom   18 type  2   force =     0.00000000    0.00000000    0.00000000
     The Hubbard contrib.    to forces
     atom    1 type  2   force =     0.00000000    0.00000000    0.00000000
     atom    2 type  2   force =     0.00000000    0.00000000    0.00000000
     atom    3 type  2   force =     0.00000000    0.00000000    0.00000000
     atom    4 type  2   force =     0.00000000    0.00000000    0.00000000
     atom    5 type  1   force =     0.00000000    0.00000000    0.00000000
     atom    6 type  1   force =     0.00000000    0.00000000    0.00000000
     atom    7 type  1   force =     0.00000000    0.00000000    0.00000000
     atom    8 type  1   force =     0.00000000    0.00000000    0.00000000
     atom    9 type  1   force =     0.00000000    0.00000000    0.00000000
     atom   10 type  1   force =     0.00000000    0.00000000    0.00000000
     atom   11 type  1   force =     0.00000000    0.00000000    0.00000000
     atom   12 type  1   force =     0.00000000    0.00000000    0.00000000
     atom   13 type  1   force =     0.00000000    0.00000000    0.00000000
     atom   14 type  1   force =     0.00000000    0.00000000    0.00000000
     atom   15 type  2   force =     0.00000000    0.00000000    0.00000000
     atom   16 type  2   force =     0.00000000    0.00000000    0.00000000
     atom   17 type  2   force =     0.00000000    0.00000000    0.00000000
     atom   18 type  2   force =     0.00000000    0.00000000    0.00000000
     The SCF correction term to forces
     atom    1 type  2   force =    -0.00000058    0.00000061   -0.00000107
     atom    2 type  2   force =    -0.00000106    0.00000075    0.00000047
     atom    3 type  2   force =     0.00000106    0.00000075   -0.00000047
     atom    4 type  2   force =     0.00000058    0.00000061    0.00000107
     atom    5 type  1   force =    -0.00000644    0.00000314   -0.00000093
     atom    6 type  1   force =     0.00000644    0.00000314    0.00000093
     atom    7 type  1   force =    -0.00001040    0.00000396    0.00000064
     atom    8 type  1   force =     0.00001040    0.00000396   -0.00000064
     atom    9 type  1   force =    -0.00001234    0.00000000    0.00000035
     atom   10 type  1   force =     0.00001234   -0.00000000   -0.00000035
     atom   11 type  1   force =    -0.00001040   -0.00000396    0.00000064
     atom   12 type  1   force =     0.00001040   -0.00000396   -0.00000064
     atom   13 type  1   force =    -0.00000644   -0.00000314   -0.00000093
     atom   14 type  1   force =     0.00000644   -0.00000314    0.00000093
     atom   15 type  2   force =     0.00000058   -0.00000061    0.00000107
     atom   16 type  2   force =     0.00000106   -0.00000075   -0.00000047
     atom   17 type  2   force =    -0.00000106   -0.00000075    0.00000047
     atom   18 type  2   force =    -0.00000058   -0.00000061   -0.00000107

     Total force =     0.000027     Total SCF correction =     0.000032
     SCF correction compared to forces is large: reduce conv_thr to get better values

     BFGS Geometry Optimization

     bfgs converged in   1 scf cycles and   0 bfgs steps
     (criteria: energy <  1.0E-06, force <  1.0E-05)

     End of BFGS Geometry Optimization

     Final energy   =    -123.0458012211 Ry
Begin final coordinates

ATOMIC_POSITIONS (alat)
H        0.189539935  -0.656155853   0.302151295
H        0.290943755  -0.785801855  -0.077378649
H        0.709056254  -0.785801855   0.077378649
H        0.810460073  -0.656155853  -0.302151295
C        0.170759662  -0.596032336   0.049212226
C        0.829240338  -0.596032336  -0.049212226
C        0.335800495  -0.285574340   0.003121147
C        0.664199505  -0.285574340  -0.003121147
C        0.174970530   0.000000000  -0.000173072
C        0.825029469   0.000000000   0.000173072
C        0.335800495   0.285574340   0.003121147
C        0.664199505   0.285574340  -0.003121147
C        0.170759662   0.596032336   0.049212226
C        0.829240338   0.596032336  -0.049212226
H       -0.189539935   0.656155853  -0.302151295
H       -0.290943755   0.785801855   0.077378649
H       -0.709056254   0.785801855  -0.077378649
H       -0.810460073   0.656155853   0.302151295
End final coordinates



     Writing output data file gar-w_03-2H.save

     init_run     :      6.12s CPU      6.28s WALL (       1 calls)
     electrons    :     27.59s CPU     28.28s WALL (       1 calls)
     forces       :      3.12s CPU      3.20s WALL (       1 calls)

     Called by init_run:
     wfcinit      :      1.25s CPU      1.27s WALL (       1 calls)
     potinit      :      2.02s CPU      2.04s WALL (       1 calls)

     Called by electrons:
     c_bands      :     18.71s CPU     18.95s WALL (      11 calls)
     sum_band     :      4.10s CPU      4.31s WALL (      11 calls)
     v_of_rho     :      1.76s CPU      1.88s WALL (      12 calls)
     v_h          :      0.13s CPU      0.13s WALL (      12 calls)
     v_xc         :      1.63s CPU      1.75s WALL (      12 calls)
     mix_rho      :      0.35s CPU      0.40s WALL (      11 calls)

     Called by c_bands:
     init_us_2    :      0.03s CPU      0.03s WALL (      23 calls)
     cegterg      :      9.04s CPU      9.19s WALL (      11 calls)

     Called by sum_band:

     Called by *egterg:
     h_psi        :      9.09s CPU      9.24s WALL (      41 calls)
     g_psi        :      0.03s CPU      0.02s WALL (      29 calls)
     cdiaghg      :      0.14s CPU      0.15s WALL (      40 calls)
     cegterg:over :      0.31s CPU      0.31s WALL (      29 calls)
     cegterg:upda :      0.16s CPU      0.16s WALL (      29 calls)
     cegterg:last :      0.07s CPU      0.06s WALL (      11 calls)

     Called by h_psi:
     h_psi:vloc   :      8.90s CPU      9.04s WALL (      41 calls)
     h_psi:vnl    :      0.17s CPU      0.17s WALL (      41 calls)
     add_vuspsi   :      0.06s CPU      0.06s WALL (      41 calls)

     General routines
     calbec       :      0.11s CPU      0.12s WALL (      42 calls)
     fft          :      1.93s CPU      2.10s WALL (     133 calls)
     fftw         :      9.60s CPU      9.86s WALL (    1910 calls)

     Parallel routines
     fft_scatter  :      8.48s CPU      8.80s WALL (    2043 calls)

     PWSCF        :    37.33s CPU        38.51s WALL


   This run was terminated on:  15: 4:31   6Jul2014            

=------------------------------------------------------------------------------=
   JOB DONE.
=------------------------------------------------------------------------------=
