
     Program PWSCF v.5.0.2 (svn rev. 10600) starts on  5Jul2014 at 20:45:34 

     This program is part of the open-source Quantum ESPRESSO suite
     for quantum simulation of materials; please cite
         "P. Giannozzi et al., J. Phys.:Condens. Matter 21 395502 (2009);
          URL http://www.quantum-espresso.org", 
     in publications or presentations arising from this work. More details at
     http://www.quantum-espresso.org/quote

     Parallel version (MPI), running on     4 processors
     K-points division:     npool     =       2
     R & G space division:  proc/nbgrp/npool/nimage =       2
     Reading input from gar-w_05-1H-pw.in
Warning: card &IONS ignored
Warning: card     TRUST_RADIUS_INI  = 0.01 ignored
Warning: card     BFGS_NDIM         = 3 ignored
Warning: card     POT_EXTRAPOLATION = 'SECOND_ORDER' ignored
Warning: card     WFC_EXTRAPOLATION = 'SECOND_ORDER' ignored
Warning: card / ignored

     Current dimensions of program PWSCF are:
     Max number of different atomic species (ntypx) = 10
     Max number of k-points (npk) =  40000
     Max angular momentum in pseudopotentials (lmaxx) =  3
               file H.pbe-vbc.UPF: wavefunction(s)  0S renormalized

     Subspace diagonalization in iterative solution of the eigenvalue problem:
     a serial algorithm will be used


     Parallelization info
     --------------------
     sticks:   dense  smooth     PW     G-vecs:    dense   smooth      PW
     Min        1103    1103    312                41825    41825    6308
     Max        1104    1104    313                41826    41826    6311
     Sum        2207    2207    625                83651    83651   12619



     bravais-lattice index     =            8
     lattice parameter (alat)  =       8.0518  a.u.
     unit-cell volume          =    2990.3752 (a.u.)^3
     number of atoms/cell      =           18
     number of atomic types    =            2
     number of electrons       =        60.00
     number of Kohn-Sham states=           30
     kinetic-energy cutoff     =      35.0000  Ry
     charge density cutoff     =     140.0000  Ry
     convergence threshold     =      1.0E-09
     mixing beta               =       0.5000
     number of iterations used =            8  plain     mixing
     Exchange-correlation      = SLA  PW   PBE  PBE ( 1  4  3  4 0)

     celldm(1)=   8.051830  celldm(2)=   3.051038  celldm(3)=   1.877562
     celldm(4)=   0.000000  celldm(5)=   0.000000  celldm(6)=   0.000000

     crystal axes: (cart. coord. in units of alat)
               a(1) = (   1.000000   0.000000   0.000000 )  
               a(2) = (   0.000000   3.051038   0.000000 )  
               a(3) = (   0.000000   0.000000   1.877562 )  

     reciprocal axes: (cart. coord. in units 2 pi/alat)
               b(1) = (  1.000000  0.000000  0.000000 )  
               b(2) = (  0.000000  0.327757  0.000000 )  
               b(3) = (  0.000000  0.000000  0.532606 )  


     PseudoPot. # 1 for C  read from file:
     ../PP_LIBRARY/C.pbe-mt_gipaw.UPF
     MD5 check sum: 5ac2f21f2c440b14befe521540822c15
     Pseudo is Norm-conserving, Zval =  4.0
     Generated by new atomic code, or converted to UPF format
     Using radial grid of 1073 points,  1 beta functions with: 
                l(1) =   0

     PseudoPot. # 2 for H  read from file:
     ../PP_LIBRARY/H.pbe-vbc.UPF
     MD5 check sum: 0ad67d0772b4eb71cad78a7d32695431
     Pseudo is Norm-conserving, Zval =  1.0
     Generated by new atomic code, or converted to UPF format
     Using radial grid of  325 points,  0 beta functions with: 

     atomic species   valence    mass     pseudopotential
        C              4.00    12.01070     C ( 1.00)
        H              1.00     1.00790     H ( 1.00)

      8 Sym. Ops., with inversion, found


                                    s                        frac. trans.

      isym =  1     identity                                     

 cryst.   s( 1) = (     1          0          0      )
                  (     0          1          0      )
                  (     0          0          1      )

 cart.    s( 1) = (  1.0000000  0.0000000  0.0000000 )
                  (  0.0000000  1.0000000  0.0000000 )
                  (  0.0000000  0.0000000  1.0000000 )


      isym =  2     180 deg rotation - cart. axis [0,0,1]        

 cryst.   s( 2) = (    -1          0          0      )
                  (     0         -1          0      )
                  (     0          0          1      )

 cart.    s( 2) = ( -1.0000000  0.0000000  0.0000000 )
                  (  0.0000000 -1.0000000  0.0000000 )
                  (  0.0000000  0.0000000  1.0000000 )


      isym =  3     180 deg rotation - cart. axis [0,1,0]        

 cryst.   s( 3) = (    -1          0          0      )
                  (     0          1          0      )
                  (     0          0         -1      )

 cart.    s( 3) = ( -1.0000000  0.0000000  0.0000000 )
                  (  0.0000000  1.0000000  0.0000000 )
                  (  0.0000000  0.0000000 -1.0000000 )


      isym =  4     180 deg rotation - cart. axis [1,0,0]        

 cryst.   s( 4) = (     1          0          0      )
                  (     0         -1          0      )
                  (     0          0         -1      )

 cart.    s( 4) = (  1.0000000  0.0000000  0.0000000 )
                  (  0.0000000 -1.0000000  0.0000000 )
                  (  0.0000000  0.0000000 -1.0000000 )


      isym =  5     inversion                                    

 cryst.   s( 5) = (    -1          0          0      )
                  (     0         -1          0      )
                  (     0          0         -1      )

 cart.    s( 5) = ( -1.0000000  0.0000000  0.0000000 )
                  (  0.0000000 -1.0000000  0.0000000 )
                  (  0.0000000  0.0000000 -1.0000000 )


      isym =  6     inv. 180 deg rotation - cart. axis [0,0,1]   

 cryst.   s( 6) = (     1          0          0      )
                  (     0          1          0      )
                  (     0          0         -1      )

 cart.    s( 6) = (  1.0000000  0.0000000  0.0000000 )
                  (  0.0000000  1.0000000  0.0000000 )
                  (  0.0000000  0.0000000 -1.0000000 )


      isym =  7     inv. 180 deg rotation - cart. axis [0,1,0]   

 cryst.   s( 7) = (     1          0          0      )
                  (     0         -1          0      )
                  (     0          0          1      )

 cart.    s( 7) = (  1.0000000  0.0000000  0.0000000 )
                  (  0.0000000 -1.0000000  0.0000000 )
                  (  0.0000000  0.0000000  1.0000000 )


      isym =  8     inv. 180 deg rotation - cart. axis [1,0,0]   

 cryst.   s( 8) = (    -1          0          0      )
                  (     0          1          0      )
                  (     0          0          1      )

 cart.    s( 8) = ( -1.0000000  0.0000000  0.0000000 )
                  (  0.0000000  1.0000000  0.0000000 )
                  (  0.0000000  0.0000000  1.0000000 )


     point group D_2h (mmm) 
     there are  8 classes
     the character table:

       E     C2_z  C2_y  C2_x  i     s_xy  s_xz  s_yz 
A_g    1.00  1.00  1.00  1.00  1.00  1.00  1.00  1.00
B_1g   1.00  1.00 -1.00 -1.00  1.00  1.00 -1.00 -1.00
B_2g   1.00 -1.00  1.00 -1.00  1.00 -1.00  1.00 -1.00
B_3g   1.00 -1.00 -1.00  1.00  1.00 -1.00 -1.00  1.00
A_u    1.00  1.00  1.00  1.00 -1.00 -1.00 -1.00 -1.00
B_1u   1.00  1.00 -1.00 -1.00 -1.00 -1.00  1.00  1.00
B_2u   1.00 -1.00  1.00 -1.00 -1.00  1.00 -1.00  1.00
B_3u   1.00 -1.00 -1.00  1.00 -1.00  1.00  1.00 -1.00

     the symmetry operations in each class:
     E        1
     C2_z     2
     C2_y     3
     C2_x     4
     i        5
     s_xy     6
     s_xz     7
     s_yz     8

   Cartesian axes

     site n.     atom                  positions (alat units)
         1           H   tau(   1) = (   0.2163592  -1.0919888  -0.0000000  )
         2           H   tau(   2) = (   0.7836408  -1.0919888  -0.0000000  )
         3           C   tau(   3) = (   0.3397009  -0.8676541  -0.0000000  )
         4           C   tau(   4) = (   0.6602991  -0.8676541  -0.0000000  )
         5           C   tau(   5) = (   0.1705546  -0.5808381  -0.0000000  )
         6           C   tau(   6) = (   0.8294454  -0.5808381  -0.0000000  )
         7           C   tau(   7) = (   0.3309672  -0.2930180   0.0000000  )
         8           C   tau(   8) = (   0.6690328  -0.2930180  -0.0000000  )
         9           C   tau(   9) = (   0.1655914   0.0000000   0.0000000  )
        10           C   tau(  10) = (   0.8344086  -0.0000000   0.0000000  )
        11           C   tau(  11) = (   0.3309672   0.2930180  -0.0000000  )
        12           C   tau(  12) = (   0.6690328   0.2930180   0.0000000  )
        13           C   tau(  13) = (   0.1705546   0.5808381   0.0000000  )
        14           C   tau(  14) = (   0.8294454   0.5808381  -0.0000000  )
        15           C   tau(  15) = (   0.3397009   0.8676541   0.0000000  )
        16           C   tau(  16) = (   0.6602991   0.8676541   0.0000000  )
        17           H   tau(  17) = (   0.2163592   1.0919888  -0.0000000  )
        18           H   tau(  18) = (   0.7836408   1.0919888  -0.0000000  )

   Crystallographic axes

     site n.     atom                  positions (cryst. coord.)
         1           H   tau(   1) = (  0.2163592 -0.3579073  0.0000000  )
         2           H   tau(   2) = (  0.7836408 -0.3579073  0.0000000  )
         3           C   tau(   3) = (  0.3397009 -0.2843800  0.0000000  )
         4           C   tau(   4) = (  0.6602991 -0.2843800  0.0000000  )
         5           C   tau(   5) = (  0.1705546 -0.1903739  0.0000000  )
         6           C   tau(   6) = (  0.8294454 -0.1903739  0.0000000  )
         7           C   tau(   7) = (  0.3309672 -0.0960388  0.0000000  )
         8           C   tau(   8) = (  0.6690328 -0.0960388  0.0000000  )
         9           C   tau(   9) = (  0.1655914  0.0000000  0.0000000  )
        10           C   tau(  10) = (  0.8344086  0.0000000  0.0000000  )
        11           C   tau(  11) = (  0.3309672  0.0960388  0.0000000  )
        12           C   tau(  12) = (  0.6690328  0.0960388  0.0000000  )
        13           C   tau(  13) = (  0.1705546  0.1903739  0.0000000  )
        14           C   tau(  14) = (  0.8294454  0.1903739  0.0000000  )
        15           C   tau(  15) = (  0.3397009  0.2843800  0.0000000  )
        16           C   tau(  16) = (  0.6602991  0.2843800  0.0000000  )
        17           H   tau(  17) = (  0.2163592  0.3579073  0.0000000  )
        18           H   tau(  18) = (  0.7836408  0.3579073  0.0000000  )

     number of k points=     2
                       cart. coord. in units 2pi/alat
        k(    1) = (   0.0000000   0.0000000   0.0000000), wk =   1.0000000
        k(    2) = (  -0.5000000   0.0000000   0.0000000), wk =   1.0000000

                       cryst. coord.
        k(    1) = (   0.0000000   0.0000000   0.0000000), wk =   1.0000000
        k(    2) = (  -0.5000000   0.0000000   0.0000000), wk =   1.0000000

     Dense  grid:    83651 G-vectors     FFT dimensions: (  32,  96,  60)

     Largest allocated arrays     est. size (Mb)     dimensions
        Kohn-Sham Wavefunctions         2.41 Mb     (    5257,   30)
        NL pseudopotentials             1.12 Mb     (    5257,   14)
        Each V/rho on FFT grid          1.41 Mb     (   92160)
        Each G-vector array             0.32 Mb     (   41825)
        G-vector shells                 0.09 Mb     (   11183)
     Largest temporary arrays     est. size (Mb)     dimensions
        Auxiliary wavefunctions         9.63 Mb     (    5257,  120)
        Each subspace H/S matrix        0.22 Mb     (     120,  120)
        Each <psi_i|beta_j> matrix      0.01 Mb     (      14,   30)
        Arrays for rho mixing          11.25 Mb     (   92160,    8)

     Initial potential from superposition of free atoms

     starting charge   52.99992, renormalised to   60.00000

     negative rho (up, down):  6.893E-06 0.000E+00
     Starting wfc are  116 randomized atomic wfcs

     total cpu time spent up to now is        7.7 secs

     per-process dynamical memory:    31.2 Mb

     Self-consistent Calculation

     iteration #  1     ecut=    35.00 Ry     beta=0.50
     Davidson diagonalization with overlap
     ethr =  1.00E-02,  avg # of iterations =  2.0

     negative rho (up, down):  7.541E-07 0.000E+00

     total cpu time spent up to now is        9.2 secs

     total energy              =    -163.47280103 Ry
     Harris-Foulkes estimate   =    -164.15685223 Ry
     estimated scf accuracy    <       1.26237100 Ry

     iteration #  2     ecut=    35.00 Ry     beta=0.50
     Davidson diagonalization with overlap
     ethr =  2.10E-03,  avg # of iterations =  4.0

     negative rho (up, down):  2.456E-07 0.000E+00

     total cpu time spent up to now is       10.7 secs

     total energy              =    -163.54999976 Ry
     Harris-Foulkes estimate   =    -164.09747338 Ry
     estimated scf accuracy    <       1.43523934 Ry

     iteration #  3     ecut=    35.00 Ry     beta=0.50
     Davidson diagonalization with overlap
     ethr =  2.10E-03,  avg # of iterations =  3.5

     total cpu time spent up to now is       12.0 secs

     total energy              =    -163.82358512 Ry
     Harris-Foulkes estimate   =    -163.85935677 Ry
     estimated scf accuracy    <       0.13599356 Ry

     iteration #  4     ecut=    35.00 Ry     beta=0.50
     Davidson diagonalization with overlap
     ethr =  2.27E-04,  avg # of iterations =  3.0

     total cpu time spent up to now is       13.4 secs

     total energy              =    -163.84112730 Ry
     Harris-Foulkes estimate   =    -163.84181001 Ry
     estimated scf accuracy    <       0.00815059 Ry

     iteration #  5     ecut=    35.00 Ry     beta=0.50
     Davidson diagonalization with overlap
     ethr =  1.36E-05,  avg # of iterations =  3.5

     total cpu time spent up to now is       14.7 secs

     total energy              =    -163.84262084 Ry
     Harris-Foulkes estimate   =    -163.84288931 Ry
     estimated scf accuracy    <       0.00130176 Ry

     iteration #  6     ecut=    35.00 Ry     beta=0.50
     Davidson diagonalization with overlap
     ethr =  2.17E-06,  avg # of iterations =  3.5

     total cpu time spent up to now is       16.1 secs

     total energy              =    -163.84273643 Ry
     Harris-Foulkes estimate   =    -163.84276684 Ry
     estimated scf accuracy    <       0.00010788 Ry

     iteration #  7     ecut=    35.00 Ry     beta=0.50
     Davidson diagonalization with overlap
     ethr =  1.80E-07,  avg # of iterations =  3.5

     total cpu time spent up to now is       17.7 secs

     total energy              =    -163.84276296 Ry
     Harris-Foulkes estimate   =    -163.84277603 Ry
     estimated scf accuracy    <       0.00003416 Ry

     iteration #  8     ecut=    35.00 Ry     beta=0.50
     Davidson diagonalization with overlap
     ethr =  5.69E-08,  avg # of iterations =  3.5

     total cpu time spent up to now is       19.1 secs

     total energy              =    -163.84277043 Ry
     Harris-Foulkes estimate   =    -163.84277133 Ry
     estimated scf accuracy    <       0.00000311 Ry

     iteration #  9     ecut=    35.00 Ry     beta=0.50
     Davidson diagonalization with overlap
     ethr =  5.18E-09,  avg # of iterations =  3.5

     total cpu time spent up to now is       20.7 secs

     total energy              =    -163.84277076 Ry
     Harris-Foulkes estimate   =    -163.84277086 Ry
     estimated scf accuracy    <       0.00000034 Ry

     iteration # 10     ecut=    35.00 Ry     beta=0.50
     Davidson diagonalization with overlap
     ethr =  5.65E-10,  avg # of iterations =  4.0

     total cpu time spent up to now is       22.5 secs

     total energy              =    -163.84277087 Ry
     Harris-Foulkes estimate   =    -163.84277089 Ry
     estimated scf accuracy    <       0.00000007 Ry

     iteration # 11     ecut=    35.00 Ry     beta=0.50
     Davidson diagonalization with overlap
     ethr =  1.15E-10,  avg # of iterations =  3.5

     total cpu time spent up to now is       24.0 secs

     total energy              =    -163.84277087 Ry
     Harris-Foulkes estimate   =    -163.84277087 Ry
     estimated scf accuracy    <          4.1E-09 Ry

     iteration # 12     ecut=    35.00 Ry     beta=0.50
     Davidson diagonalization with overlap
     ethr =  6.82E-12,  avg # of iterations =  4.5

     total cpu time spent up to now is       25.9 secs

     End of self-consistent calculation

          k = 0.0000 0.0000 0.0000 ( 10509 PWs)   bands (ev):

   -19.9409 -19.1079 -17.7132 -16.0019 -14.6808 -14.2089 -13.9541 -13.6008
   -13.1591 -12.6226 -11.0150 -10.7563 -10.6359  -9.1660  -9.1396  -9.1159
    -7.9555  -7.6836  -7.2906  -7.0444  -7.0086  -5.4785  -5.4337  -5.2762
    -4.1823  -4.0881  -3.5826  -2.7085  -1.7115  -1.5848

     occupation numbers 
     1.0000   1.0000   1.0000   1.0000   1.0000   1.0000   1.0000   1.0000
     1.0000   1.0000   1.0000   1.0000   1.0000   1.0000   1.0000   1.0000
     1.0000   1.0000   1.0000   1.0000   1.0000   1.0000   1.0000   1.0000
     1.0000   1.0000   1.0000   1.0000   1.0000   1.0000

          k =-0.5000 0.0000 0.0000 ( 10416 PWs)   bands (ev):

   -18.5003 -18.4430 -17.8392 -17.4642 -16.5370 -16.0642 -15.2261 -13.4651
   -12.5677 -11.6511 -10.4134  -9.3896  -8.4278  -8.1195  -7.3982  -7.2141
    -7.1942  -7.0768  -6.8432  -6.7288  -6.6895  -6.3903  -6.2571  -6.2292
    -6.0337  -5.4754  -5.2129  -4.1690  -3.8747  -3.1923

     occupation numbers 
     1.0000   1.0000   1.0000   1.0000   1.0000   1.0000   1.0000   1.0000
     1.0000   1.0000   1.0000   1.0000   1.0000   1.0000   1.0000   1.0000
     1.0000   1.0000   1.0000   1.0000   1.0000   1.0000   1.0000   1.0000
     1.0000   1.0000   1.0000   1.0000   1.0000   1.0000

     highest occupied level (ev):    -1.5848

!    total energy              =    -163.84277087 Ry
     Harris-Foulkes estimate   =    -163.84277088 Ry
     estimated scf accuracy    <          9.9E-10 Ry

     The total energy is the sum of the following terms:

     one-electron contribution =    -541.85405985 Ry
     hartree contribution      =     283.46408370 Ry
     xc contribution           =     -51.82432596 Ry
     ewald contribution        =     146.37153123 Ry

     convergence has been achieved in  12 iterations

     Forces acting on atoms (Ry/au):

     atom    1 type  2   force =     0.00000079    0.00000123    0.00000000
     atom    2 type  2   force =    -0.00000079    0.00000123   -0.00000000
     atom    3 type  1   force =     0.00000069   -0.00000109    0.00000000
     atom    4 type  1   force =    -0.00000069   -0.00000109    0.00000000
     atom    5 type  1   force =     0.00000296   -0.00000244    0.00000000
     atom    6 type  1   force =    -0.00000296   -0.00000244    0.00000000
     atom    7 type  1   force =     0.00000379   -0.00000423    0.00000000
     atom    8 type  1   force =    -0.00000379   -0.00000423   -0.00000000
     atom    9 type  1   force =     0.00000345    0.00000000   -0.00000000
     atom   10 type  1   force =    -0.00000345   -0.00000000   -0.00000000
     atom   11 type  1   force =     0.00000379    0.00000423    0.00000000
     atom   12 type  1   force =    -0.00000379    0.00000423    0.00000000
     atom   13 type  1   force =     0.00000296    0.00000244    0.00000000
     atom   14 type  1   force =    -0.00000296    0.00000244    0.00000000
     atom   15 type  1   force =     0.00000069    0.00000109    0.00000000
     atom   16 type  1   force =    -0.00000069    0.00000109    0.00000000
     atom   17 type  2   force =     0.00000079   -0.00000123    0.00000000
     atom   18 type  2   force =    -0.00000079   -0.00000123    0.00000000
     The non-local contrib.  to forces
     atom    1 type  2   force =     0.00000000    0.00000000    0.00000000
     atom    2 type  2   force =     0.00000000    0.00000000    0.00000000
     atom    3 type  1   force =    -0.12908664    0.00036068    0.00000000
     atom    4 type  1   force =     0.12908664    0.00036068   -0.00000000
     atom    5 type  1   force =    -0.07664221   -0.01185602   -0.00000000
     atom    6 type  1   force =     0.07664221   -0.01185602    0.00000000
     atom    7 type  1   force =     0.04049428    0.06601084   -0.00000000
     atom    8 type  1   force =    -0.04049428    0.06601084    0.00000000
     atom    9 type  1   force =     0.05140890    0.00000000    0.00000000
     atom   10 type  1   force =    -0.05140890    0.00000000   -0.00000000
     atom   11 type  1   force =     0.04049428   -0.06601084   -0.00000000
     atom   12 type  1   force =    -0.04049428   -0.06601084    0.00000000
     atom   13 type  1   force =    -0.07664221    0.01185602    0.00000000
     atom   14 type  1   force =     0.07664221    0.01185602    0.00000000
     atom   15 type  1   force =    -0.12908664   -0.00036068    0.00000000
     atom   16 type  1   force =     0.12908664   -0.00036068    0.00000000
     atom   17 type  2   force =     0.00000000    0.00000000    0.00000000
     atom   18 type  2   force =     0.00000000    0.00000000    0.00000000
     The ionic contribution  to forces
     atom    1 type  2   force =    -0.83955260   -3.40719586   -0.00000000
     atom    2 type  2   force =     0.83955260   -3.40719586   -0.00000000
     atom    3 type  1   force =    -1.47848270   -9.02001579   -0.00000000
     atom    4 type  1   force =     1.47848270   -9.02001579   -0.00000000
     atom    5 type  1   force =    -0.48552235   -5.24115004   -0.00000000
     atom    6 type  1   force =     0.48552235   -5.24115004   -0.00000000
     atom    7 type  1   force =     0.06276264   -2.00579940   -0.00000000
     atom    8 type  1   force =    -0.06276264   -2.00579940   -0.00000000
     atom    9 type  1   force =     0.22823496   -0.00000000   -0.00000000
     atom   10 type  1   force =    -0.22823496    0.00000000   -0.00000000
     atom   11 type  1   force =     0.06276264    2.00579940   -0.00000000
     atom   12 type  1   force =    -0.06276264    2.00579940   -0.00000000
     atom   13 type  1   force =    -0.48552235    5.24115004   -0.00000000
     atom   14 type  1   force =     0.48552235    5.24115004   -0.00000000
     atom   15 type  1   force =    -1.47848270    9.02001579   -0.00000000
     atom   16 type  1   force =     1.47848270    9.02001579   -0.00000000
     atom   17 type  2   force =    -0.83955260    3.40719586   -0.00000000
     atom   18 type  2   force =     0.83955260    3.40719586   -0.00000000
     The local contribution  to forces
     atom    1 type  2   force =     0.83955480    3.40719907    0.00000000
     atom    2 type  2   force =    -0.83955480    3.40719907    0.00000000
     atom    3 type  1   force =     1.60757666    9.01965141    0.00000000
     atom    4 type  1   force =    -1.60757666    9.01965141    0.00000000
     atom    5 type  1   force =     0.56217228    5.25298109    0.00000000
     atom    6 type  1   force =    -0.56217228    5.25298109    0.00000000
     atom    7 type  1   force =    -0.10324852    1.93976069    0.00000000
     atom    8 type  1   force =     0.10324852    1.93976069    0.00000000
     atom    9 type  1   force =    -0.27963297   -0.00000000    0.00000000
     atom   10 type  1   force =     0.27963297   -0.00000000    0.00000000
     atom   11 type  1   force =    -0.10324852   -1.93976069    0.00000000
     atom   12 type  1   force =     0.10324852   -1.93976069    0.00000000
     atom   13 type  1   force =     0.56217228   -5.25298109    0.00000000
     atom   14 type  1   force =    -0.56217228   -5.25298109    0.00000000
     atom   15 type  1   force =     1.60757666   -9.01965141    0.00000000
     atom   16 type  1   force =    -1.60757666   -9.01965141    0.00000000
     atom   17 type  2   force =     0.83955480   -3.40719907    0.00000000
     atom   18 type  2   force =    -0.83955480   -3.40719907    0.00000000
     The core correction contribution to forces
     atom    1 type  2   force =     0.00000000    0.00000000    0.00000000
     atom    2 type  2   force =     0.00000000    0.00000000    0.00000000
     atom    3 type  1   force =     0.00000000    0.00000000    0.00000000
     atom    4 type  1   force =     0.00000000    0.00000000    0.00000000
     atom    5 type  1   force =     0.00000000    0.00000000    0.00000000
     atom    6 type  1   force =     0.00000000    0.00000000    0.00000000
     atom    7 type  1   force =     0.00000000    0.00000000    0.00000000
     atom    8 type  1   force =     0.00000000    0.00000000    0.00000000
     atom    9 type  1   force =     0.00000000    0.00000000    0.00000000
     atom   10 type  1   force =     0.00000000    0.00000000    0.00000000
     atom   11 type  1   force =     0.00000000    0.00000000    0.00000000
     atom   12 type  1   force =     0.00000000    0.00000000    0.00000000
     atom   13 type  1   force =     0.00000000    0.00000000    0.00000000
     atom   14 type  1   force =     0.00000000    0.00000000    0.00000000
     atom   15 type  1   force =     0.00000000    0.00000000    0.00000000
     atom   16 type  1   force =     0.00000000    0.00000000    0.00000000
     atom   17 type  2   force =     0.00000000    0.00000000    0.00000000
     atom   18 type  2   force =     0.00000000    0.00000000    0.00000000
     The Hubbard contrib.    to forces
     atom    1 type  2   force =     0.00000000    0.00000000    0.00000000
     atom    2 type  2   force =     0.00000000    0.00000000    0.00000000
     atom    3 type  1   force =     0.00000000    0.00000000    0.00000000
     atom    4 type  1   force =     0.00000000    0.00000000    0.00000000
     atom    5 type  1   force =     0.00000000    0.00000000    0.00000000
     atom    6 type  1   force =     0.00000000    0.00000000    0.00000000
     atom    7 type  1   force =     0.00000000    0.00000000    0.00000000
     atom    8 type  1   force =     0.00000000    0.00000000    0.00000000
     atom    9 type  1   force =     0.00000000    0.00000000    0.00000000
     atom   10 type  1   force =     0.00000000    0.00000000    0.00000000
     atom   11 type  1   force =     0.00000000    0.00000000    0.00000000
     atom   12 type  1   force =     0.00000000    0.00000000    0.00000000
     atom   13 type  1   force =     0.00000000    0.00000000    0.00000000
     atom   14 type  1   force =     0.00000000    0.00000000    0.00000000
     atom   15 type  1   force =     0.00000000    0.00000000    0.00000000
     atom   16 type  1   force =     0.00000000    0.00000000    0.00000000
     atom   17 type  2   force =     0.00000000    0.00000000    0.00000000
     atom   18 type  2   force =     0.00000000    0.00000000    0.00000000
     The SCF correction term to forces
     atom    1 type  2   force =    -0.00000141   -0.00000198    0.00000000
     atom    2 type  2   force =     0.00000141   -0.00000198    0.00000000
     atom    3 type  1   force =    -0.00000663    0.00000261   -0.00000000
     atom    4 type  1   force =     0.00000663    0.00000261   -0.00000000
     atom    5 type  1   force =    -0.00000477    0.00002254   -0.00000000
     atom    6 type  1   force =     0.00000477    0.00002254   -0.00000000
     atom    7 type  1   force =    -0.00000461    0.00002363   -0.00000000
     atom    8 type  1   force =     0.00000461    0.00002363   -0.00000000
     atom    9 type  1   force =    -0.00000744    0.00000000   -0.00000000
     atom   10 type  1   force =     0.00000744    0.00000000   -0.00000000
     atom   11 type  1   force =    -0.00000461   -0.00002363   -0.00000000
     atom   12 type  1   force =     0.00000461   -0.00002363   -0.00000000
     atom   13 type  1   force =    -0.00000477   -0.00002254   -0.00000000
     atom   14 type  1   force =     0.00000477   -0.00002254   -0.00000000
     atom   15 type  1   force =    -0.00000663   -0.00000261   -0.00000000
     atom   16 type  1   force =     0.00000663   -0.00000261   -0.00000000
     atom   17 type  2   force =    -0.00000141    0.00000198    0.00000000
     atom   18 type  2   force =     0.00000141    0.00000198    0.00000000

     Total force =     0.000015     Total SCF correction =     0.000069
     SCF correction compared to forces is large: reduce conv_thr to get better values

     Writing output data file gar-w_05-1H.save

     init_run     :      7.50s CPU      7.55s WALL (       1 calls)
     electrons    :     18.12s CPU     18.28s WALL (       1 calls)
     forces       :      3.49s CPU      3.50s WALL (       1 calls)

     Called by init_run:
     wfcinit      :      1.77s CPU      1.80s WALL (       1 calls)
     potinit      :      2.65s CPU      2.66s WALL (       1 calls)

     Called by electrons:
     c_bands      :     12.74s CPU     12.86s WALL (      12 calls)
     sum_band     :      2.60s CPU      2.61s WALL (      12 calls)
     v_of_rho     :      2.31s CPU      2.32s WALL (      13 calls)
     v_h          :      0.12s CPU      0.13s WALL (      13 calls)
     v_xc         :      2.18s CPU      2.19s WALL (      13 calls)
     mix_rho      :      0.52s CPU      0.52s WALL (      12 calls)

     Called by c_bands:
     init_us_2    :      0.03s CPU      0.04s WALL (      25 calls)
     cegterg      :     12.63s CPU     12.75s WALL (      12 calls)

     Called by sum_band:

     Called by *egterg:
     h_psi        :     11.54s CPU     11.60s WALL (      60 calls)
     g_psi        :      0.06s CPU      0.06s WALL (      47 calls)
     cdiaghg      :      0.26s CPU      0.26s WALL (      59 calls)
     cegterg:over :      0.82s CPU      0.85s WALL (      47 calls)
     cegterg:upda :      0.58s CPU      0.57s WALL (      47 calls)
     cegterg:last :      0.20s CPU      0.20s WALL (      12 calls)

     Called by h_psi:
     h_psi:vloc   :     11.15s CPU     11.20s WALL (      60 calls)
     h_psi:vnl    :      0.32s CPU      0.32s WALL (      60 calls)
     add_vuspsi   :      0.14s CPU      0.14s WALL (      60 calls)

     General routines
     calbec       :      0.19s CPU      0.19s WALL (      61 calls)
     fft          :      1.25s CPU      1.26s WALL (     144 calls)
     fftw         :     12.25s CPU     12.30s WALL (    2552 calls)

     Parallel routines
     fft_scatter  :      6.90s CPU      6.93s WALL (    2696 calls)

     PWSCF        :    29.29s CPU        29.58s WALL


   This run was terminated on:  20:46: 3   5Jul2014            

=------------------------------------------------------------------------------=
   JOB DONE.
=------------------------------------------------------------------------------=
