[Molden Format]
[FREQ]
    0.00
    0.00
   48.85
   67.21
   93.09
  244.86
  256.66
  367.70
  371.81
  390.27
  400.03
  471.34
  509.54
  512.95
  553.50
  572.60
  587.83
  671.02
  707.67
  726.42
  739.79
  751.88
  760.73
  813.05
  860.84
  904.02
  904.81
  928.08
  936.50
  949.72
 1078.29
 1085.47
 1108.71
 1162.77
 1175.99
 1239.82
 1249.55
 1256.04
 1267.98
 1333.09
 1337.52
 1349.60
 1398.54
 1411.90
 1440.54
 1449.79
 1529.77
 1541.87
 1553.99
 1634.29
 3197.85
 3198.03
 3236.52
 3236.91
[FR-COORD]
   H           1.74209       -8.79251       -0.00000
   H           6.30974       -8.79251       -0.00000
   C           2.73521       -6.98620       -0.00000
   C           5.31662       -6.98620       -0.00000
   C           1.37328       -4.67681       -0.00000
   C           6.67855       -4.67681       -0.00000
   C           2.66489       -2.35933        0.00000
   C           5.38694       -2.35933       -0.00000
   C           1.33331        0.00000        0.00000
   C           6.71852       -0.00000        0.00000
   C           2.66489        2.35933       -0.00000
   C           5.38694        2.35933        0.00000
   C           1.37328        4.67681        0.00000
   C           6.67855        4.67681       -0.00000
   C           2.73521        6.98620        0.00000
   C           5.31662        6.98620        0.00000
   H           1.74209        8.79251       -0.00000
   H           6.30974        8.79251       -0.00000
[FR-NORM-COORD]
 vibration     1
  -0.00000   0.00000   0.22130
  -0.00000   0.00000   0.22130
  -0.00000   0.00000   0.22999
  -0.00000   0.00000   0.22999
  -0.00000   0.00000   0.23660
  -0.00000   0.00000   0.23660
  -0.00000   0.00000   0.24531
  -0.00000   0.00000   0.24531
  -0.00000   0.00000   0.25289
  -0.00000   0.00000   0.25289
  -0.00000   0.00000   0.24531
  -0.00000   0.00000   0.24531
  -0.00000   0.00000   0.23660
  -0.00000   0.00000   0.23660
  -0.00000   0.00000   0.22999
  -0.00000   0.00000   0.22999
  -0.00000   0.00000   0.22130
  -0.00000   0.00000   0.22130
 vibration     2
  -0.00000   0.00000   0.35997
  -0.00000   0.00000   0.35997
  -0.00000   0.00000   0.28047
  -0.00000   0.00000   0.28047
  -0.00000   0.00000   0.18265
  -0.00000   0.00000   0.18265
  -0.00000   0.00000   0.09162
  -0.00000   0.00000   0.09162
  -0.00000   0.00000  -0.00000
  -0.00000   0.00000  -0.00000
  -0.00000   0.00000  -0.09162
  -0.00000   0.00000  -0.09162
  -0.00000   0.00000  -0.18265
  -0.00000   0.00000  -0.18265
  -0.00000   0.00000  -0.28047
  -0.00000   0.00000  -0.28047
  -0.00000   0.00000  -0.35997
  -0.00000   0.00000  -0.35997
 vibration     3
  -0.00212   0.23288  -0.00000
   0.00212   0.23288  -0.00000
  -0.00102   0.23227  -0.00000
   0.00102   0.23227  -0.00000
   0.00047   0.23628  -0.00000
  -0.00047   0.23628  -0.00000
  -0.00056   0.23866  -0.00000
   0.00056   0.23866  -0.00000
   0.00000   0.24097  -0.00000
   0.00000   0.24097  -0.00000
   0.00056   0.23866  -0.00000
  -0.00056   0.23866   0.00000
  -0.00047   0.23628   0.00000
   0.00047   0.23628   0.00000
   0.00102   0.23227   0.00000
  -0.00102   0.23227   0.00000
   0.00212   0.23288   0.00000
  -0.00212   0.23288   0.00000
 vibration     4
   0.24399  -0.00492   0.00000
   0.24399   0.00492   0.00000
   0.24108  -0.00327   0.00000
   0.24108   0.00327   0.00000
   0.23480  -0.00254   0.00000
   0.23480   0.00254   0.00000
   0.22818  -0.00067   0.00000
   0.22818   0.00067   0.00000
   0.22411  -0.00000   0.00000
   0.22411  -0.00000   0.00000
   0.22818   0.00067   0.00000
   0.22818  -0.00067   0.00000
   0.23480   0.00254   0.00000
   0.23480  -0.00254   0.00000
   0.24108   0.00327   0.00000
   0.24108  -0.00327   0.00000
   0.24399   0.00492   0.00000
   0.24399  -0.00492   0.00000
 vibration     5
   0.00000   0.00000  -0.39096
   0.00000   0.00000  -0.39096
   0.00000   0.00000  -0.22607
   0.00000   0.00000  -0.22607
   0.00000   0.00000  -0.01909
   0.00000   0.00000  -0.01909
   0.00000   0.00000   0.14655
   0.00000   0.00000   0.14655
   0.00000   0.00000   0.22003
   0.00000   0.00000   0.22003
   0.00000   0.00000   0.14655
   0.00000   0.00000   0.14655
   0.00000   0.00000  -0.01909
   0.00000   0.00000  -0.01909
   0.00000   0.00000  -0.22607
   0.00000   0.00000  -0.22607
   0.00000   0.00000  -0.39096
   0.00000   0.00000  -0.39096
 vibration     6
   0.00000  -0.00000  -0.39883
   0.00000   0.00000  -0.39883
   0.00000   0.00000  -0.13382
   0.00000   0.00000  -0.13382
   0.00000   0.00000   0.16351
   0.00000   0.00000   0.16351
   0.00000   0.00000   0.21515
   0.00000   0.00000   0.21515
   0.00000  -0.00000  -0.00000
   0.00000   0.00000  -0.00000
  -0.00000   0.00000  -0.21515
  -0.00000  -0.00000  -0.21515
  -0.00000  -0.00000  -0.16351
  -0.00000   0.00000  -0.16351
  -0.00000  -0.00000   0.13382
  -0.00000   0.00000   0.13382
  -0.00000  -0.00000   0.39883
  -0.00000   0.00000   0.39883
 vibration     7
  -0.31450   0.02613  -0.00000
  -0.31450  -0.02613  -0.00000
  -0.28729   0.01051  -0.00000
  -0.28729  -0.01051  -0.00000
  -0.22617   0.01667   0.00000
  -0.22617  -0.01667   0.00000
  -0.12736  -0.00359   0.00000
  -0.12736   0.00359   0.00000
  -0.00000   0.01331   0.00000
  -0.00000  -0.01331   0.00000
   0.12736  -0.00359  -0.00000
   0.12736   0.00359  -0.00000
   0.22617   0.01667  -0.00000
   0.22617  -0.01667  -0.00000
   0.28729   0.01051   0.00000
   0.28729  -0.01051   0.00000
   0.31450   0.02613   0.00000
   0.31450  -0.02613   0.00000
 vibration     8
  -0.00000  -0.00000  -0.43635
  -0.00000  -0.00000   0.43635
  -0.00000  -0.00000  -0.21356
  -0.00000  -0.00000   0.21356
  -0.00000  -0.00000  -0.11483
  -0.00000  -0.00000   0.11483
   0.00000  -0.00000  -0.00385
   0.00000  -0.00000   0.00385
   0.00000   0.00000   0.03968
   0.00000   0.00000  -0.03968
   0.00000   0.00000  -0.00385
   0.00000   0.00000   0.00385
   0.00000   0.00000  -0.11483
   0.00000   0.00000   0.11483
   0.00000   0.00000  -0.21356
   0.00000   0.00000   0.21356
   0.00000   0.00000  -0.43635
   0.00000   0.00000   0.43635
 vibration     9
   0.00000   0.00000  -0.42768
  -0.00000   0.00000   0.42768
   0.00000   0.00000  -0.21587
  -0.00000   0.00000   0.21587
  -0.00000   0.00000  -0.13540
   0.00000   0.00000   0.13540
   0.00000   0.00000  -0.04646
  -0.00000   0.00000   0.04646
  -0.00000   0.00000  -0.00000
   0.00000   0.00000   0.00000
   0.00000  -0.00000   0.04646
  -0.00000  -0.00000  -0.04646
  -0.00000  -0.00000   0.13540
  -0.00000  -0.00000  -0.13540
  -0.00000  -0.00000   0.21587
   0.00000  -0.00000  -0.21587
   0.00000  -0.00000   0.42768
   0.00000  -0.00000  -0.42768
 vibration    10
   0.00000   0.00000   0.39830
  -0.00000   0.00000   0.39830
   0.00000   0.00000   0.07844
   0.00000   0.00000   0.07844
  -0.00000   0.00000  -0.23351
   0.00000   0.00000  -0.23351
   0.00000   0.00000  -0.00609
  -0.00000   0.00000  -0.00609
  -0.00000   0.00000   0.24757
   0.00000  -0.00000   0.24757
   0.00000  -0.00000  -0.00609
  -0.00000  -0.00000  -0.00609
  -0.00000  -0.00000  -0.23351
   0.00000  -0.00000  -0.23351
   0.00000  -0.00000   0.07844
   0.00000  -0.00000   0.07844
  -0.00000  -0.00000   0.39830
   0.00000  -0.00000   0.39830
 vibration    11
  -0.02588  -0.28567   0.00000
   0.02588  -0.28567   0.00000
  -0.00328  -0.29636  -0.00000
   0.00328  -0.29636   0.00000
   0.01713  -0.24127  -0.00000
  -0.01713  -0.24127  -0.00000
  -0.01432  -0.14526  -0.00000
   0.01432  -0.14526   0.00000
   0.01182  -0.00000   0.00000
  -0.01182  -0.00000   0.00000
  -0.01432   0.14526  -0.00000
   0.01432   0.14526   0.00000
   0.01713   0.24127  -0.00000
  -0.01713   0.24127  -0.00000
  -0.00328   0.29636   0.00000
   0.00328   0.29636  -0.00000
  -0.02588   0.28567   0.00000
   0.02588   0.28567   0.00000
 vibration    12
   0.00000   0.00000   0.17810
   0.00000   0.00000  -0.17810
   0.00000   0.00000   0.02497
  -0.00000   0.00000  -0.02497
  -0.00000   0.00000  -0.16054
   0.00000   0.00000   0.16054
   0.00000   0.00000  -0.33632
  -0.00000  -0.00000   0.33632
  -0.00000  -0.00000  -0.39691
  -0.00000  -0.00000   0.39691
   0.00000  -0.00000  -0.33632
   0.00000  -0.00000   0.33632
   0.00000  -0.00000  -0.16054
   0.00000  -0.00000   0.16054
   0.00000  -0.00000   0.02497
   0.00000  -0.00000  -0.02497
   0.00000  -0.00000   0.17810
   0.00000  -0.00000  -0.17810
 vibration    13
  -0.00000   0.00000   0.34824
  -0.00000  -0.00000   0.34824
  -0.00000   0.00000   0.03562
  -0.00000  -0.00000   0.03562
  -0.00000   0.00000  -0.24333
  -0.00000  -0.00000  -0.24333
   0.00000  -0.00000   0.26125
   0.00000   0.00000   0.26125
   0.00000   0.00000   0.00000
   0.00000   0.00000  -0.00000
   0.00000   0.00000  -0.26125
   0.00000   0.00000  -0.26125
  -0.00000  -0.00000   0.24333
  -0.00000   0.00000   0.24333
  -0.00000  -0.00000  -0.03562
  -0.00000   0.00000  -0.03562
  -0.00000  -0.00000  -0.34824
  -0.00000   0.00000  -0.34824
 vibration    14
  -0.33957   0.10541  -0.00000
  -0.33957  -0.10541  -0.00000
  -0.22472   0.03910  -0.00000
  -0.22472  -0.03910  -0.00000
  -0.03534   0.06441   0.00000
  -0.03534  -0.06441   0.00000
   0.17445  -0.00044  -0.00000
   0.17445   0.00044  -0.00000
   0.26730   0.00000   0.00000
   0.26730  -0.00000   0.00000
   0.17445   0.00044   0.00000
   0.17445  -0.00044   0.00000
  -0.03534  -0.06441  -0.00000
  -0.03534   0.06441  -0.00000
  -0.22472  -0.03910   0.00000
  -0.22472   0.03910   0.00000
  -0.33957  -0.10541   0.00000
  -0.33957   0.10541   0.00000
 vibration    15
  -0.24094   0.30586  -0.00000
  -0.24094  -0.30586   0.00000
  -0.01362   0.17653  -0.00000
  -0.01362  -0.17653   0.00000
   0.04522   0.16978   0.00000
   0.04522  -0.16978  -0.00000
   0.04545   0.15496   0.00000
   0.04545  -0.15496  -0.00000
  -0.00000   0.14213  -0.00000
  -0.00000  -0.14213  -0.00000
  -0.04545   0.15496  -0.00000
  -0.04545  -0.15496   0.00000
  -0.04522   0.16978  -0.00000
  -0.04522  -0.16978   0.00000
   0.01362   0.17653   0.00000
   0.01362  -0.17653  -0.00000
   0.24094   0.30586   0.00000
   0.24094  -0.30586  -0.00000
 vibration    16
  -0.00000   0.00000   0.37798
  -0.00000  -0.00000  -0.37798
   0.00000   0.00000   0.10459
   0.00000  -0.00000  -0.10459
   0.00000   0.00000  -0.18035
   0.00000  -0.00000   0.18035
   0.00000   0.00000  -0.25233
   0.00000  -0.00000   0.25233
  -0.00000   0.00000  -0.00000
  -0.00000  -0.00000  -0.00000
  -0.00000   0.00000   0.25233
  -0.00000  -0.00000  -0.25233
  -0.00000   0.00000   0.18035
  -0.00000  -0.00000  -0.18035
   0.00000   0.00000  -0.10459
   0.00000  -0.00000   0.10459
   0.00000   0.00000  -0.37798
   0.00000  -0.00000   0.37798
 vibration    17
  -0.00000   0.00000  -0.16405
  -0.00000  -0.00000  -0.16405
   0.00000   0.00000  -0.02384
   0.00000  -0.00000  -0.02384
   0.00000   0.00000   0.18177
   0.00000  -0.00000   0.18177
  -0.00000   0.00000  -0.33931
  -0.00000  -0.00000  -0.33931
  -0.00000   0.00000   0.38561
  -0.00000  -0.00000   0.38561
  -0.00000   0.00000  -0.33931
  -0.00000  -0.00000  -0.33931
   0.00000   0.00000   0.18177
   0.00000  -0.00000   0.18177
   0.00000   0.00000  -0.02384
   0.00000   0.00000  -0.02384
   0.00000   0.00000  -0.16405
   0.00000  -0.00000  -0.16405
 vibration    18
   0.20477  -0.35222  -0.00000
   0.20477   0.35222   0.00000
  -0.04562  -0.20962   0.00000
  -0.04562   0.20962  -0.00000
  -0.03883  -0.15056  -0.00000
  -0.03883   0.15056   0.00000
   0.02340  -0.09908  -0.00000
   0.02340   0.09908  -0.00000
   0.08302   0.00000   0.00000
   0.08302   0.00000   0.00000
   0.02340   0.09908  -0.00000
   0.02340  -0.09908  -0.00000
  -0.03883   0.15056   0.00000
  -0.03883  -0.15056  -0.00000
  -0.04562   0.20962  -0.00000
  -0.04562  -0.20962   0.00000
   0.20477   0.35222  -0.00000
   0.20477  -0.35222   0.00000
 vibration    19
   0.00000   0.00000   0.38724
   0.00000   0.00000  -0.38724
   0.00000   0.00000   0.08553
   0.00000   0.00000  -0.08553
  -0.00000  -0.00000  -0.23468
  -0.00000   0.00000   0.23468
  -0.00000   0.00000  -0.02501
  -0.00000  -0.00000   0.02501
  -0.00000   0.00000   0.27214
  -0.00000  -0.00000  -0.27214
   0.00000   0.00000  -0.02501
   0.00000  -0.00000   0.02501
   0.00000   0.00000  -0.23468
   0.00000  -0.00000   0.23468
  -0.00000   0.00000   0.08553
  -0.00000  -0.00000  -0.08553
  -0.00000  -0.00000   0.38724
  -0.00000   0.00000  -0.38724
 vibration    20
  -0.10819  -0.24552  -0.00000
   0.10819  -0.24552  -0.00000
  -0.00427  -0.29695   0.00000
   0.00427  -0.29695   0.00000
   0.04725  -0.03830   0.00000
  -0.04725  -0.03830  -0.00000
  -0.05153   0.19365  -0.00000
   0.05153   0.19365   0.00000
   0.00000   0.30320   0.00000
   0.00000   0.30320  -0.00000
   0.05153   0.19365  -0.00000
  -0.05153   0.19365   0.00000
  -0.04725  -0.03830  -0.00000
   0.04725  -0.03830   0.00000
   0.00427  -0.29695   0.00000
  -0.00427  -0.29695  -0.00000
   0.10819  -0.24552  -0.00000
  -0.10819  -0.24552  -0.00000
 vibration    21
   0.30459   0.01066  -0.00000
   0.30459  -0.01066  -0.00000
   0.20922   0.06754   0.00000
   0.20922  -0.06754   0.00000
  -0.13535  -0.00243  -0.00000
  -0.13535   0.00243  -0.00000
  -0.28468   0.05192   0.00000
  -0.28468  -0.05192   0.00000
   0.00000   0.11589  -0.00000
  -0.00000  -0.11589   0.00000
   0.28468   0.05192   0.00000
   0.28468  -0.05192  -0.00000
   0.13535  -0.00243   0.00000
   0.13535   0.00243  -0.00000
  -0.20922   0.06754  -0.00000
  -0.20922  -0.06754  -0.00000
  -0.30459   0.01066   0.00000
  -0.30459  -0.01066   0.00000
 vibration    22
  -0.00000  -0.00000  -0.49188
  -0.00000   0.00000  -0.49188
  -0.00000  -0.00000   0.07899
  -0.00000   0.00000   0.07899
   0.00000  -0.00000  -0.04235
   0.00000  -0.00000  -0.04235
   0.00000  -0.00000   0.00480
   0.00000   0.00000   0.00480
  -0.00000  -0.00000  -0.00000
  -0.00000   0.00000   0.00000
  -0.00000  -0.00000  -0.00480
  -0.00000   0.00000  -0.00480
  -0.00000   0.00000   0.04235
  -0.00000  -0.00000   0.04235
   0.00000  -0.00000  -0.07899
   0.00000   0.00000  -0.07899
   0.00000  -0.00000   0.49188
   0.00000   0.00000   0.49188
 vibration    23
  -0.00000   0.00000  -0.49227
  -0.00000  -0.00000  -0.49227
  -0.00000   0.00000   0.07780
  -0.00000   0.00000   0.07780
   0.00000  -0.00000  -0.03970
   0.00000  -0.00000  -0.03970
   0.00000  -0.00000  -0.00185
   0.00000  -0.00000  -0.00185
  -0.00000  -0.00000   0.00864
  -0.00000   0.00000   0.00864
  -0.00000  -0.00000  -0.00185
  -0.00000   0.00000  -0.00185
  -0.00000   0.00000  -0.03970
  -0.00000   0.00000  -0.03970
   0.00000   0.00000   0.07780
   0.00000   0.00000   0.07780
   0.00000   0.00000  -0.49227
   0.00000  -0.00000  -0.49227
 vibration    24
  -0.00000   0.00000   0.34752
   0.00000  -0.00000  -0.34752
  -0.00000  -0.00000   0.04964
  -0.00000  -0.00000  -0.04964
   0.00000   0.00000  -0.25612
  -0.00000  -0.00000   0.25612
   0.00000   0.00000   0.24732
  -0.00000   0.00000  -0.24732
  -0.00000   0.00000  -0.00000
   0.00000   0.00000  -0.00000
  -0.00000  -0.00000  -0.24732
  -0.00000   0.00000   0.24732
  -0.00000  -0.00000   0.25612
  -0.00000  -0.00000  -0.25612
  -0.00000  -0.00000  -0.04964
   0.00000  -0.00000   0.04964
  -0.00000  -0.00000  -0.34752
   0.00000  -0.00000   0.34752
 vibration    25
   0.00000   0.00000   0.22267
  -0.00000  -0.00000  -0.22267
   0.00000  -0.00000   0.02910
   0.00000  -0.00000  -0.02910
  -0.00000   0.00000  -0.19662
  -0.00000   0.00000   0.19662
  -0.00000   0.00000   0.31411
  -0.00000   0.00000  -0.31411
   0.00000   0.00000  -0.35284
   0.00000  -0.00000   0.35284
   0.00000   0.00000   0.31411
   0.00000  -0.00000  -0.31411
  -0.00000  -0.00000  -0.19662
  -0.00000   0.00000   0.19662
  -0.00000  -0.00000   0.02910
  -0.00000  -0.00000  -0.02910
   0.00000   0.00000   0.22267
   0.00000   0.00000  -0.22267
 vibration    26
   0.00000   0.00000   0.48862
   0.00000   0.00000  -0.48862
   0.00000  -0.00000  -0.10087
   0.00000  -0.00000   0.10087
  -0.00000   0.00000   0.03256
  -0.00000  -0.00000  -0.03256
  -0.00000   0.00000  -0.00366
  -0.00000   0.00000   0.00366
   0.00000   0.00000   0.00000
   0.00000  -0.00000  -0.00000
   0.00000   0.00000   0.00366
  -0.00000  -0.00000  -0.00366
  -0.00000  -0.00000  -0.03256
  -0.00000   0.00000   0.03256
   0.00000  -0.00000   0.10087
   0.00000   0.00000  -0.10087
   0.00000   0.00000  -0.48862
   0.00000  -0.00000   0.48862
 vibration    27
   0.00000  -0.00000   0.48881
   0.00000   0.00000  -0.48881
   0.00000  -0.00000  -0.10049
   0.00000  -0.00000   0.10049
  -0.00000   0.00000   0.03101
  -0.00000   0.00000  -0.03101
  -0.00000   0.00000  -0.00045
  -0.00000   0.00000   0.00045
   0.00000   0.00000  -0.00016
   0.00000  -0.00000   0.00016
   0.00000   0.00000  -0.00045
   0.00000  -0.00000   0.00045
  -0.00000  -0.00000   0.03101
  -0.00000  -0.00000  -0.03101
   0.00000  -0.00000  -0.10049
   0.00000   0.00000   0.10049
   0.00000  -0.00000   0.48881
   0.00000   0.00000  -0.48881
 vibration    28
   0.30290   0.03410  -0.00000
   0.30290  -0.03410   0.00000
   0.15154   0.12363   0.00000
   0.15154  -0.12363  -0.00000
  -0.26251  -0.00478  -0.00000
  -0.26251   0.00478   0.00000
  -0.05710  -0.07161  -0.00000
  -0.05710   0.07161   0.00000
   0.28815  -0.00000   0.00000
   0.28815   0.00000  -0.00000
  -0.05710   0.07161  -0.00000
  -0.05710  -0.07161   0.00000
  -0.26251   0.00478  -0.00000
  -0.26251  -0.00478   0.00000
   0.15154  -0.12363   0.00000
   0.15154   0.12363  -0.00000
   0.30290  -0.03410  -0.00000
   0.30290   0.03410   0.00000
 vibration    29
  -0.25187  -0.12353  -0.00000
   0.25187  -0.12353   0.00000
  -0.02780  -0.24062   0.00000
   0.02780  -0.24062  -0.00000
   0.10742   0.14885   0.00000
  -0.10742   0.14885  -0.00000
   0.01096   0.27768  -0.00000
  -0.01096   0.27768   0.00000
  -0.05844   0.00000  -0.00000
   0.05844  -0.00000  -0.00000
   0.01096  -0.27768   0.00000
  -0.01096  -0.27768   0.00000
   0.10742  -0.14885  -0.00000
  -0.10742  -0.14885   0.00000
  -0.02780   0.24062   0.00000
   0.02780   0.24062  -0.00000
  -0.25187   0.12353  -0.00000
   0.25187   0.12353   0.00000
 vibration    30
  -0.16727   0.33244   0.00000
  -0.16727  -0.33244  -0.00000
   0.06231   0.20033  -0.00000
   0.06231  -0.20033   0.00000
  -0.06779   0.00021   0.00000
  -0.06779  -0.00021  -0.00000
   0.02815  -0.17041  -0.00000
   0.02815   0.17041  -0.00000
  -0.00000  -0.25715  -0.00000
  -0.00000   0.25715   0.00000
  -0.02815  -0.17041   0.00000
  -0.02815   0.17041  -0.00000
   0.06779   0.00021  -0.00000
   0.06779  -0.00021  -0.00000
  -0.06231   0.20033  -0.00000
  -0.06231  -0.20033   0.00000
   0.16727   0.33244   0.00000
   0.16727  -0.33244  -0.00000
 vibration    31
  -0.32653   0.19528   0.00000
   0.32653   0.19528   0.00000
  -0.07098   0.04790  -0.00000
   0.07098   0.04790  -0.00000
   0.23365  -0.08045  -0.00000
  -0.23365  -0.08045   0.00000
   0.16771  -0.04284   0.00000
  -0.16771  -0.04284  -0.00000
  -0.00000   0.11738  -0.00000
  -0.00000   0.11738   0.00000
  -0.16771  -0.04284  -0.00000
   0.16771  -0.04284   0.00000
  -0.23365  -0.08045  -0.00000
   0.23365  -0.08045  -0.00000
   0.07098   0.04790   0.00000
  -0.07098   0.04790  -0.00000
   0.32653   0.19528  -0.00000
  -0.32653   0.19528   0.00000
 vibration    32
   0.30764   0.00024   0.00000
  -0.30764   0.00024  -0.00000
   0.03386   0.14840   0.00000
  -0.03386   0.14840   0.00000
  -0.06301  -0.23483   0.00000
   0.06301  -0.23483   0.00000
  -0.13219  -0.07206  -0.00000
   0.13219  -0.07206   0.00000
  -0.00000   0.31751  -0.00000
  -0.00000   0.31751  -0.00000
   0.13219  -0.07206  -0.00000
  -0.13219  -0.07206   0.00000
   0.06301  -0.23483  -0.00000
  -0.06301  -0.23483   0.00000
  -0.03386   0.14840   0.00000
   0.03386   0.14840   0.00000
  -0.30764   0.00024  -0.00000
   0.30764   0.00024  -0.00000
 vibration    33
  -0.40148   0.20945  -0.00000
  -0.40148  -0.20945  -0.00000
  -0.02479  -0.00769   0.00000
  -0.02479   0.00769   0.00000
   0.15162  -0.05190  -0.00000
   0.15162   0.05190  -0.00000
  -0.13420  -0.02113   0.00000
  -0.13420   0.02113   0.00000
   0.00000  -0.01611   0.00000
  -0.00000   0.01611  -0.00000
   0.13420  -0.02113  -0.00000
   0.13420   0.02113   0.00000
  -0.15162  -0.05190  -0.00000
  -0.15162   0.05190  -0.00000
   0.02479  -0.00769   0.00000
   0.02479   0.00769   0.00000
   0.40148   0.20945  -0.00000
   0.40148  -0.20945   0.00000
 vibration    34
  -0.38764   0.26719   0.00000
  -0.38764  -0.26719  -0.00000
   0.01222   0.03792  -0.00000
   0.01222  -0.03792  -0.00000
   0.05442  -0.09632   0.00000
   0.05442   0.09632  -0.00000
  -0.05441  -0.10358  -0.00000
  -0.05441   0.10358  -0.00000
   0.04061   0.00000  -0.00000
   0.04061   0.00000   0.00000
  -0.05441   0.10358   0.00000
  -0.05441  -0.10358   0.00000
   0.05442   0.09632   0.00000
   0.05442  -0.09632  -0.00000
   0.01222  -0.03792   0.00000
   0.01222   0.03792   0.00000
  -0.38764  -0.26719  -0.00000
  -0.38764   0.26719   0.00000
 vibration    35
  -0.39800   0.23207  -0.00000
   0.39800   0.23207   0.00000
  -0.03774   0.02425   0.00000
   0.03774   0.02425   0.00000
   0.13831  -0.01004   0.00000
  -0.13831  -0.01004   0.00000
   0.11120  -0.06024  -0.00000
  -0.11120  -0.06024  -0.00000
  -0.03169  -0.00000  -0.00000
   0.03169   0.00000  -0.00000
   0.11120   0.06024   0.00000
  -0.11120   0.06024  -0.00000
   0.13831   0.01004   0.00000
  -0.13831   0.01004   0.00000
  -0.03774  -0.02425  -0.00000
   0.03774  -0.02425   0.00000
  -0.39800  -0.23207   0.00000
   0.39800  -0.23207  -0.00000
 vibration    36
   0.35108  -0.05668  -0.00000
  -0.35108  -0.05668   0.00000
   0.08175   0.08857  -0.00000
  -0.08175   0.08857  -0.00000
   0.15230  -0.16803  -0.00000
  -0.15230  -0.16803  -0.00000
  -0.06054   0.11289  -0.00000
   0.06054   0.11289  -0.00000
  -0.28691  -0.00000   0.00000
   0.28691  -0.00000   0.00000
  -0.06054  -0.11289   0.00000
   0.06054  -0.11289  -0.00000
   0.15230   0.16803  -0.00000
  -0.15230   0.16803  -0.00000
   0.08175  -0.08857  -0.00000
  -0.08175  -0.08857  -0.00000
   0.35108   0.05668   0.00000
  -0.35108   0.05668  -0.00000
 vibration    37
   0.43880  -0.22353  -0.00000
  -0.43880  -0.22353   0.00000
   0.03454   0.00637   0.00000
  -0.03454   0.00637   0.00000
   0.03580  -0.00587   0.00000
  -0.03580  -0.00587   0.00000
   0.06487   0.02534  -0.00000
  -0.06487   0.02534   0.00000
   0.00000  -0.01361  -0.00000
  -0.00000  -0.01361  -0.00000
  -0.06487   0.02534   0.00000
   0.06487   0.02534  -0.00000
  -0.03580  -0.00587  -0.00000
   0.03580  -0.00587   0.00000
  -0.03454   0.00637   0.00000
   0.03454   0.00637  -0.00000
  -0.43880  -0.22353  -0.00000
   0.43880  -0.22353   0.00000
 vibration    38
   0.12549   0.06591  -0.00000
   0.12549  -0.06591   0.00000
   0.01316   0.12884   0.00000
   0.01316  -0.12884  -0.00000
  -0.12872  -0.07505   0.00000
  -0.12872   0.07505   0.00000
   0.28901  -0.19838   0.00000
   0.28901   0.19838   0.00000
  -0.36893  -0.00000   0.00000
  -0.36893  -0.00000  -0.00000
   0.28901   0.19838   0.00000
   0.28901  -0.19838  -0.00000
  -0.12872   0.07505  -0.00000
  -0.12872  -0.07505   0.00000
   0.01316  -0.12884   0.00000
   0.01316   0.12884  -0.00000
   0.12549  -0.06591  -0.00000
   0.12549   0.06591   0.00000
 vibration    39
   0.41891  -0.22650   0.00000
  -0.41891  -0.22650   0.00000
   0.02263  -0.00019  -0.00000
  -0.02263  -0.00019   0.00000
   0.05034   0.01567  -0.00000
  -0.05034   0.01567  -0.00000
   0.12599   0.00214  -0.00000
  -0.12599   0.00214  -0.00000
   0.08992   0.00000  -0.00000
  -0.08992   0.00000  -0.00000
   0.12599  -0.00214  -0.00000
  -0.12599  -0.00214   0.00000
   0.05034  -0.01567  -0.00000
  -0.05034  -0.01567  -0.00000
   0.02263   0.00019   0.00000
  -0.02263   0.00019  -0.00000
   0.41891   0.22650   0.00000
  -0.41891   0.22650  -0.00000
 vibration    40
   0.16076  -0.21403   0.00000
  -0.16076  -0.21403  -0.00000
  -0.07421  -0.07093  -0.00000
   0.07421  -0.07093   0.00000
  -0.08934   0.20619  -0.00000
   0.08934   0.20619   0.00000
   0.09313  -0.26105   0.00000
  -0.09313  -0.26105  -0.00000
  -0.00000   0.28458   0.00000
   0.00000   0.28458   0.00000
  -0.09313  -0.26105   0.00000
   0.09313  -0.26105  -0.00000
   0.08934   0.20619   0.00000
  -0.08934   0.20619   0.00000
   0.07421  -0.07093  -0.00000
  -0.07421  -0.07093  -0.00000
  -0.16076  -0.21403  -0.00000
   0.16076  -0.21403   0.00000
 vibration    41
   0.27177  -0.19627   0.00000
  -0.27177  -0.19627  -0.00000
   0.04030  -0.06138   0.00000
  -0.04030  -0.06138  -0.00000
   0.06642   0.21614   0.00000
  -0.06642   0.21614   0.00000
  -0.06776  -0.20269   0.00000
   0.06776  -0.20269   0.00000
  -0.26618  -0.00000  -0.00000
   0.26618  -0.00000  -0.00000
  -0.06776   0.20269   0.00000
   0.06776   0.20269   0.00000
   0.06642  -0.21614  -0.00000
  -0.06642  -0.21614   0.00000
   0.04030   0.06138   0.00000
  -0.04030   0.06138  -0.00000
   0.27177   0.19627   0.00000
  -0.27177   0.19627   0.00000
 vibration    42
  -0.40283   0.22908   0.00000
  -0.40283  -0.22908   0.00000
   0.06360  -0.02991   0.00000
   0.06360   0.02991   0.00000
  -0.07364  -0.09539  -0.00000
  -0.07364   0.09539  -0.00000
   0.06790  -0.01282   0.00000
   0.06790   0.01282   0.00000
   0.00000   0.14844  -0.00000
  -0.00000  -0.14844  -0.00000
  -0.06790  -0.01282  -0.00000
  -0.06790   0.01282   0.00000
   0.07364  -0.09539  -0.00000
   0.07364   0.09539  -0.00000
  -0.06360  -0.02991  -0.00000
  -0.06360   0.02991   0.00000
   0.40283   0.22908   0.00000
   0.40283  -0.22908  -0.00000
 vibration    43
   0.05231   0.11947  -0.00000
  -0.05231   0.11947   0.00000
   0.27790  -0.02540  -0.00000
  -0.27790  -0.02540  -0.00000
   0.26514   0.13630   0.00000
  -0.26514   0.13630  -0.00000
  -0.22203  -0.12948  -0.00000
   0.22203  -0.12948  -0.00000
   0.00000   0.01915   0.00000
  -0.00000   0.01915  -0.00000
   0.22203  -0.12948  -0.00000
  -0.22203  -0.12948  -0.00000
  -0.26514   0.13630  -0.00000
   0.26514   0.13630   0.00000
  -0.27790  -0.02540   0.00000
   0.27790  -0.02540   0.00000
  -0.05231   0.11947  -0.00000
   0.05231   0.11947  -0.00000
 vibration    44
  -0.43197   0.18076   0.00000
  -0.43197  -0.18076  -0.00000
   0.08214  -0.10059  -0.00000
   0.08214   0.10059  -0.00000
  -0.08232   0.00866   0.00000
  -0.08232  -0.00866  -0.00000
   0.04823   0.06608  -0.00000
   0.04823  -0.06608  -0.00000
  -0.02521   0.00000  -0.00000
  -0.02521  -0.00000  -0.00000
   0.04823  -0.06608   0.00000
   0.04823   0.06608  -0.00000
  -0.08232  -0.00866   0.00000
  -0.08232   0.00866   0.00000
   0.08214   0.10059   0.00000
   0.08214  -0.10059  -0.00000
  -0.43197  -0.18076  -0.00000
  -0.43197   0.18076   0.00000
 vibration    45
  -0.14431   0.25379   0.00000
   0.14431   0.25379  -0.00000
   0.29790  -0.01687   0.00000
  -0.29790  -0.01687  -0.00000
   0.14206   0.03230  -0.00000
  -0.14206   0.03230   0.00000
  -0.13179  -0.02493   0.00000
   0.13179  -0.02493  -0.00000
   0.27027   0.00000  -0.00000
  -0.27027  -0.00000   0.00000
  -0.13179   0.02493   0.00000
   0.13179   0.02493  -0.00000
   0.14206  -0.03230  -0.00000
  -0.14206  -0.03230   0.00000
   0.29790   0.01687  -0.00000
  -0.29790   0.01687   0.00000
  -0.14431  -0.25379   0.00000
   0.14431  -0.25379  -0.00000
 vibration    46
   0.39756  -0.10980   0.00000
   0.39756   0.10980  -0.00000
  -0.08411   0.15082  -0.00000
  -0.08411  -0.15082   0.00000
   0.05908  -0.12789  -0.00000
   0.05908   0.12789  -0.00000
   0.00980  -0.08666  -0.00000
   0.00980   0.08666   0.00000
  -0.00000   0.21266  -0.00000
   0.00000  -0.21266   0.00000
  -0.00980  -0.08666   0.00000
  -0.00980   0.08666  -0.00000
  -0.05908  -0.12789   0.00000
  -0.05908   0.12789  -0.00000
   0.08411   0.15082  -0.00000
   0.08411  -0.15082   0.00000
  -0.39756  -0.10980   0.00000
  -0.39756   0.10980   0.00000
 vibration    47
   0.09519   0.03489  -0.00000
   0.09519  -0.03489   0.00000
  -0.02751   0.10319  -0.00000
  -0.02751  -0.10319   0.00000
  -0.02300  -0.29057  -0.00000
  -0.02300   0.29057  -0.00000
   0.03105   0.32594   0.00000
   0.03105  -0.32594   0.00000
  -0.00000  -0.26890  -0.00000
   0.00000   0.26890  -0.00000
  -0.03105   0.32594  -0.00000
  -0.03105  -0.32594   0.00000
   0.02300  -0.29057  -0.00000
   0.02300   0.29057  -0.00000
   0.02751   0.10319  -0.00000
   0.02751  -0.10319   0.00000
  -0.09519   0.03489   0.00000
  -0.09519  -0.03489  -0.00000
 vibration    48
  -0.26101   0.28027  -0.00000
   0.26101   0.28027  -0.00000
   0.24636  -0.02402   0.00000
  -0.24636  -0.02402   0.00000
  -0.11243  -0.03302   0.00000
   0.11243  -0.03302   0.00000
   0.16325   0.00562   0.00000
  -0.16325   0.00562  -0.00000
  -0.00000   0.05735   0.00000
   0.00000   0.05735  -0.00000
  -0.16325   0.00562   0.00000
   0.16325   0.00562   0.00000
   0.11243  -0.03302   0.00000
  -0.11243  -0.03302   0.00000
  -0.24636  -0.02402   0.00000
   0.24636  -0.02402   0.00000
   0.26101   0.28027  -0.00000
  -0.26101   0.28027   0.00000
 vibration    49
   0.13053   0.04200  -0.00000
   0.13053  -0.04200   0.00000
  -0.04073   0.13420  -0.00000
  -0.04073  -0.13420   0.00000
  -0.02504  -0.34588   0.00000
  -0.02504   0.34588  -0.00000
   0.04910   0.29792   0.00000
   0.04910  -0.29792   0.00000
   0.01427  -0.00000   0.00000
   0.01427  -0.00000  -0.00000
   0.04910  -0.29792   0.00000
   0.04910   0.29792  -0.00000
  -0.02504   0.34588   0.00000
  -0.02504  -0.34588   0.00000
  -0.04073  -0.13420   0.00000
  -0.04073   0.13420  -0.00000
   0.13053  -0.04200  -0.00000
   0.13053   0.04200   0.00000
 vibration    50
   0.21745  -0.22422   0.00000
  -0.21745  -0.22422   0.00000
  -0.23981   0.04803   0.00000
   0.23981   0.04803   0.00000
   0.18313   0.00578   0.00000
  -0.18313   0.00578  -0.00000
  -0.19644  -0.01931  -0.00000
   0.19644  -0.01931  -0.00000
   0.20045   0.00000  -0.00000
  -0.20045   0.00000  -0.00000