[Molden Format]
[FREQ]
    0.00
   31.79
   34.71
   74.78
  134.98
  300.96
  327.10
  361.26
  364.59
  463.47
  466.14
  486.33
  532.98
  584.45
  607.11
  615.90
  698.36
  771.68
  776.45
  781.09
  831.01
  846.37
  854.02
  900.03
  901.29
 1002.68
 1023.51
 1100.32
 1150.61
 1188.57
 1229.46
 1237.80
 1248.83
 1264.23
 1305.84
 1334.66
 1346.37
 1389.13
 1395.26
 1470.71
 1546.41
 1572.29
 1581.57
 1628.33
 3194.81
 3195.10
 3230.92
 3230.98
[FR-COORD]
   H           8.33201       -7.59020        0.00000
   H           3.74574       -7.59020       -0.00000
   C           7.34425       -5.78037        0.00000
   C           4.73349       -5.78037        0.00000
   C           0.62214       -3.50560        0.00000
   C           3.40378       -3.50560       -0.00000
   C           7.38987       -1.18181        0.00000
   C           4.68788       -1.18181       -0.00000
   C           0.66196        1.18181        0.00000
   C           3.36395        1.18181       -0.00000
   C           7.42969        3.50560        0.00000
   C           4.64805        3.50560       -0.00000
   C           0.70758        5.78037        0.00000
   C           3.31834        5.78037        0.00000
   H          -0.28018        7.59020        0.00000
   H           4.30609        7.59020       -0.00000
[FR-NORM-COORD]
 vibration     1
  -0.00000  -0.00000  -0.24642
  -0.00000  -0.00000  -0.24642
  -0.00000  -0.00000  -0.24929
  -0.00000  -0.00000  -0.24929
  -0.00000  -0.00000  -0.25135
  -0.00000  -0.00000  -0.25135
  -0.00000  -0.00000  -0.25290
  -0.00000  -0.00000  -0.25290
  -0.00000  -0.00000  -0.25290
  -0.00000  -0.00000  -0.25290
  -0.00000  -0.00000  -0.25135
  -0.00000  -0.00000  -0.25135
  -0.00000  -0.00000  -0.24929
  -0.00000  -0.00000  -0.24929
  -0.00000  -0.00000  -0.24642
  -0.00000  -0.00000  -0.24642
 vibration     2
   0.24959  -0.00310  -0.00000
   0.24959   0.00310  -0.00000
   0.25138  -0.00216  -0.00000
   0.25138   0.00216  -0.00000
   0.24966  -0.00126  -0.00000
   0.24966   0.00126  -0.00000
   0.24932  -0.00148  -0.00000
   0.24932   0.00148  -0.00000
   0.24932  -0.00148   0.00000
   0.24932   0.00148   0.00000
   0.24966  -0.00126   0.00000
   0.24966   0.00126   0.00000
   0.25138  -0.00216   0.00000
   0.25138   0.00216   0.00000
   0.24959  -0.00310   0.00000
   0.24959   0.00310   0.00000
 vibration     3
  -0.00000  -0.00000  -0.37157
  -0.00000  -0.00000  -0.37157
  -0.00000  -0.00000  -0.28104
  -0.00000  -0.00000  -0.28104
  -0.00000  -0.00000  -0.17191
  -0.00000  -0.00000  -0.17191
  -0.00000  -0.00000  -0.05834
  -0.00000  -0.00000  -0.05834
  -0.00000  -0.00000   0.05834
  -0.00000  -0.00000   0.05834
  -0.00000  -0.00000   0.17191
  -0.00000  -0.00000   0.17191
  -0.00000  -0.00000   0.28104
  -0.00000  -0.00000   0.28104
  -0.00000  -0.00000   0.37157
  -0.00000  -0.00000   0.37157
 vibration     4
   0.00032   0.24961  -0.00000
  -0.00032   0.24961  -0.00000
  -0.00041   0.24907  -0.00000
   0.00041   0.24907  -0.00000
  -0.00047   0.25058  -0.00000
   0.00047   0.25058  -0.00000
  -0.00006   0.25073  -0.00000
   0.00006   0.25073  -0.00000
  -0.00006   0.25073  -0.00000
   0.00006   0.25073  -0.00000
  -0.00047   0.25058   0.00000
   0.00047   0.25058   0.00000
  -0.00041   0.24907   0.00000
   0.00041   0.24907   0.00000
   0.00032   0.24961   0.00000
  -0.00032   0.24961   0.00000
 vibration     5
  -0.00000  -0.00000  -0.40634
  -0.00000  -0.00000  -0.40634
  -0.00000  -0.00000  -0.20625
  -0.00000  -0.00000  -0.20625
  -0.00000  -0.00000   0.03373
  -0.00000  -0.00000   0.03373
  -0.00000  -0.00000   0.20301
  -0.00000  -0.00000   0.20301
  -0.00000  -0.00000   0.20301
  -0.00000  -0.00000   0.20301
  -0.00000  -0.00000   0.03373
  -0.00000  -0.00000   0.03373
  -0.00000  -0.00000  -0.20625
  -0.00000  -0.00000  -0.20625
  -0.00000  -0.00000  -0.40634
  -0.00000  -0.00000  -0.40634
 vibration     6
  -0.32606  -0.02005  -0.00000
  -0.32606   0.02005  -0.00000
  -0.29644  -0.00285   0.00000
  -0.29644   0.00285  -0.00000
  -0.21910  -0.01851   0.00000
  -0.21910   0.01851   0.00000
  -0.08329   0.01072   0.00000
  -0.08329  -0.01072   0.00000
   0.08329  -0.01072  -0.00000
   0.08329   0.01072  -0.00000
   0.21910   0.01851  -0.00000
   0.21910  -0.01851  -0.00000
   0.29644   0.00285   0.00000
   0.29644  -0.00285   0.00000
   0.32606   0.02005   0.00000
   0.32606  -0.02005   0.00000
 vibration     7
  -0.00000   0.00000   0.40560
  -0.00000   0.00000   0.40560
  -0.00000   0.00000   0.11908
  -0.00000   0.00000   0.11908
  -0.00000   0.00000  -0.21405
  -0.00000   0.00000  -0.21405
  -0.00000   0.00000  -0.15967
  -0.00000   0.00000  -0.15967
   0.00000   0.00000   0.15967
   0.00000   0.00000   0.15967
   0.00000   0.00000   0.21405
   0.00000  -0.00000   0.21405
   0.00000   0.00000  -0.11908
   0.00000  -0.00000  -0.11908
   0.00000   0.00000  -0.40560
   0.00000  -0.00000  -0.40560
 vibration     8
   0.00000  -0.00000   0.44636
   0.00000  -0.00000  -0.44636
   0.00000  -0.00000   0.20547
   0.00000  -0.00000  -0.20547
   0.00000  -0.00000   0.08976
   0.00000  -0.00000  -0.08976
   0.00000  -0.00000  -0.02209
  -0.00000  -0.00000   0.02209
  -0.00000  -0.00000  -0.02209
  -0.00000   0.00000   0.02209
  -0.00000  -0.00000   0.08976
  -0.00000   0.00000  -0.08976
  -0.00000  -0.00000   0.20547
  -0.00000   0.00000  -0.20547
  -0.00000  -0.00000   0.44636
  -0.00000   0.00000  -0.44636
 vibration     9
  -0.00000   0.00000  -0.43124
  -0.00000   0.00000   0.43124
  -0.00000   0.00000  -0.21504
  -0.00000   0.00000   0.21504
  -0.00000   0.00000  -0.12959
  -0.00000   0.00000   0.12959
  -0.00000   0.00000  -0.03159
   0.00000   0.00000   0.03159
   0.00000   0.00000   0.03159
   0.00000   0.00000  -0.03159
   0.00000  -0.00000   0.12959
   0.00000   0.00000  -0.12959
  -0.00000  -0.00000   0.21504
   0.00000   0.00000  -0.21504
  -0.00000  -0.00000   0.43124
  -0.00000   0.00000  -0.43124
 vibration    10
   0.03911  -0.29609   0.00000
  -0.03911  -0.29609  -0.00000
   0.00695  -0.31092  -0.00000
  -0.00695  -0.31092   0.00000
  -0.02473  -0.23264  -0.00000
   0.02473  -0.23264   0.00000
   0.01938  -0.09474  -0.00000
  -0.01938  -0.09474   0.00000
  -0.01938   0.09474  -0.00000
   0.01938   0.09474   0.00000
   0.02473   0.23264  -0.00000
  -0.02473   0.23264   0.00000
  -0.00695   0.31092   0.00000
   0.00695   0.31092  -0.00000
  -0.03911   0.29609   0.00000
   0.03911   0.29609  -0.00000
 vibration    11
  -0.00000   0.00000   0.24621
   0.00000   0.00000  -0.24621
  -0.00000   0.00000   0.01182
   0.00000   0.00000  -0.01182
   0.00000   0.00000  -0.22187
  -0.00000   0.00000   0.22187
  -0.00000   0.00000  -0.37418
   0.00000   0.00000   0.37418
   0.00000  -0.00000  -0.37418
  -0.00000  -0.00000   0.37418
  -0.00000  -0.00000  -0.22187
   0.00000  -0.00000   0.22187
   0.00000  -0.00000   0.01182
  -0.00000  -0.00000  -0.01182
   0.00000  -0.00000   0.24621
  -0.00000  -0.00000  -0.24621
 vibration    12
  -0.00000  -0.00000   0.34501
  -0.00000   0.00000   0.34501
   0.00000  -0.00000   0.08020
   0.00000   0.00000   0.08020
   0.00000  -0.00000  -0.29805
   0.00000   0.00000  -0.29805
   0.00000  -0.00000   0.18895
   0.00000   0.00000   0.18895
  -0.00000  -0.00000   0.18895
  -0.00000   0.00000   0.18895
  -0.00000  -0.00000  -0.29805
  -0.00000   0.00000  -0.29805
  -0.00000  -0.00000   0.08020
  -0.00000   0.00000   0.08020
  -0.00000  -0.00000   0.34501
  -0.00000   0.00000   0.34501
 vibration    13
   0.30496   0.26999  -0.00000
   0.30496  -0.26999   0.00000
   0.09184   0.14905  -0.00000
   0.09184  -0.14905   0.00000
  -0.01589   0.16237   0.00000
  -0.01589  -0.16237  -0.00000
  -0.09914   0.13044  -0.00000
  -0.09914  -0.13044  -0.00000
  -0.09914   0.13044   0.00000
  -0.09914  -0.13044   0.00000
  -0.01589   0.16237  -0.00000
  -0.01589  -0.16237  -0.00000
   0.09184   0.14905   0.00000
   0.09184  -0.14905  -0.00000
   0.30496   0.26999   0.00000
   0.30496  -0.26999  -0.00000
 vibration    14
   0.00000   0.00000   0.13240
   0.00000  -0.00000   0.13240
   0.00000  -0.00000   0.05501
   0.00000  -0.00000   0.05501
   0.00000   0.00000  -0.25215
  -0.00000  -0.00000  -0.25215
  -0.00000   0.00000   0.40727
  -0.00000   0.00000   0.40727
  -0.00000   0.00000  -0.40727
  -0.00000   0.00000  -0.40727
  -0.00000   0.00000   0.25215
  -0.00000   0.00000   0.25215
   0.00000  -0.00000  -0.05501
   0.00000   0.00000  -0.05501
   0.00000  -0.00000  -0.13240
   0.00000   0.00000  -0.13240
 vibration    15
   0.00000  -0.00000   0.41578
   0.00000  -0.00000  -0.41578
   0.00000  -0.00000   0.08081
   0.00000  -0.00000  -0.08081
  -0.00000  -0.00000  -0.21077
   0.00000  -0.00000   0.21077
  -0.00000  -0.00000  -0.16179
  -0.00000   0.00000   0.16179
  -0.00000  -0.00000   0.16179
  -0.00000   0.00000  -0.16179
   0.00000  -0.00000   0.21077
   0.00000   0.00000  -0.21077
   0.00000  -0.00000  -0.08081
   0.00000   0.00000   0.08081
   0.00000  -0.00000  -0.41578
   0.00000   0.00000   0.41578
 vibration    16
  -0.19563   0.17476   0.00000
  -0.19563  -0.17476  -0.00000
  -0.25010   0.14644   0.00000
  -0.25010  -0.14644  -0.00000
  -0.00083   0.07155  -0.00000
  -0.00083  -0.07155   0.00000
   0.27205   0.13440   0.00000
   0.27205  -0.13440   0.00000
   0.27205   0.13440   0.00000
   0.27205  -0.13440  -0.00000
  -0.00083   0.07155   0.00000
  -0.00083  -0.07155  -0.00000
  -0.25010   0.14644  -0.00000
  -0.25010  -0.14644   0.00000
  -0.19563   0.17476  -0.00000
  -0.19563  -0.17476   0.00000
 vibration    17
  -0.27252  -0.33460   0.00000
  -0.27252   0.33460  -0.00000
  -0.01232  -0.18607   0.00000
  -0.01232   0.18607   0.00000
   0.04620  -0.14414  -0.00000
   0.04620   0.14414  -0.00000
   0.04922  -0.06054  -0.00000
   0.04922   0.06054   0.00000
  -0.04922   0.06054   0.00000
  -0.04922  -0.06054  -0.00000
  -0.04620   0.14414   0.00000
  -0.04620  -0.14414  -0.00000
   0.01232   0.18607  -0.00000
   0.01232  -0.18607  -0.00000
   0.27252   0.33460   0.00000
   0.27252  -0.33460   0.00000
 vibration    18
  -0.00000   0.00000  -0.40240
   0.00000  -0.00000   0.40240
  -0.00000   0.00000  -0.04965
  -0.00000  -0.00000   0.04965
   0.00000   0.00000   0.24062
   0.00000  -0.00000  -0.24062
   0.00000  -0.00000  -0.16646
   0.00000  -0.00000   0.16646
  -0.00000  -0.00000  -0.16646
   0.00000  -0.00000   0.16646
  -0.00000  -0.00000   0.24062
  -0.00000   0.00000  -0.24062
   0.00000  -0.00000  -0.04965
  -0.00000   0.00000   0.04965
  -0.00000  -0.00000  -0.40240
  -0.00000   0.00000   0.40240
 vibration    19
  -0.00000  -0.00000  -0.49359
  -0.00000   0.00000  -0.49359
  -0.00000   0.00000   0.07393
  -0.00000   0.00000   0.07393
   0.00000   0.00000  -0.02986
  -0.00000  -0.00000  -0.02986
   0.00000  -0.00000  -0.00284
   0.00000  -0.00000  -0.00284
  -0.00000  -0.00000  -0.00284
  -0.00000  -0.00000  -0.00284
  -0.00000  -0.00000  -0.02986
  -0.00000  -0.00000  -0.02986
   0.00000   0.00000   0.07393
   0.00000  -0.00000   0.07393
  -0.00000  -0.00000  -0.49359
   0.00000   0.00000  -0.49359
 vibration    20
   0.00000   0.00000  -0.49353
  -0.00000   0.00000  -0.49353
   0.00000   0.00000   0.07418
   0.00000   0.00000   0.07418
  -0.00000   0.00000  -0.02721
  -0.00000  -0.00000  -0.02721
  -0.00000  -0.00000  -0.01340
  -0.00000  -0.00000  -0.01340
   0.00000  -0.00000   0.01340
   0.00000  -0.00000   0.01340
   0.00000  -0.00000   0.02721
   0.00000   0.00000   0.02721
  -0.00000   0.00000  -0.07418
   0.00000   0.00000  -0.07418
  -0.00000  -0.00000   0.49353
   0.00000  -0.00000   0.49353
 vibration    21
   0.18640  -0.20304  -0.00000
  -0.18640  -0.20304  -0.00000
   0.02270  -0.28527  -0.00000
  -0.02270  -0.28527   0.00000
  -0.10888   0.02042   0.00000
   0.10888   0.02042   0.00000
   0.04009   0.27975   0.00000
  -0.04009   0.27975  -0.00000
   0.04009   0.27975  -0.00000
  -0.04009   0.27975   0.00000
  -0.10888   0.02042  -0.00000
   0.10888   0.02042  -0.00000
   0.02270  -0.28527  -0.00000
  -0.02270  -0.28527   0.00000
   0.18640  -0.20304   0.00000
  -0.18640  -0.20304   0.00000
 vibration    22
  -0.28222   0.10320   0.00000
  -0.28222  -0.10320  -0.00000
  -0.20125   0.15229  -0.00000
  -0.20125  -0.15229   0.00000
   0.22178   0.00048  -0.00000
   0.22178  -0.00048   0.00000
   0.21486  -0.02558   0.00000
   0.21486   0.02558  -0.00000
  -0.21486   0.02558  -0.00000
  -0.21486  -0.02558   0.00000
  -0.22178  -0.00048   0.00000
  -0.22178   0.00048   0.00000
   0.20125  -0.15229  -0.00000
   0.20125   0.15229  -0.00000
   0.28222  -0.10320   0.00000
   0.28222   0.10320   0.00000
 vibration    23
  -0.00000   0.00000  -0.31674
  -0.00000  -0.00000   0.31674
  -0.00000   0.00000  -0.01635
  -0.00000  -0.00000   0.01635
   0.00000   0.00000   0.19671
   0.00000  -0.00000  -0.19671
   0.00000   0.00000  -0.33274
   0.00000   0.00000   0.33274
  -0.00000   0.00000   0.33274
  -0.00000   0.00000  -0.33274
  -0.00000  -0.00000  -0.19671
  -0.00000   0.00000   0.19671
   0.00000  -0.00000   0.01635
   0.00000   0.00000  -0.01635
   0.00000  -0.00000   0.31674
   0.00000   0.00000  -0.31674
 vibration    24
  -0.00000   0.00000  -0.48616
  -0.00000   0.00000   0.48616
  -0.00000  -0.00000   0.10816
   0.00000  -0.00000  -0.10816
   0.00000  -0.00000  -0.04405
   0.00000   0.00000   0.04405
   0.00000   0.00000   0.00269
  -0.00000   0.00000  -0.00269
  -0.00000   0.00000   0.00269
  -0.00000   0.00000  -0.00269
  -0.00000   0.00000  -0.04405
  -0.00000  -0.00000   0.04405
   0.00000  -0.00000   0.10816
   0.00000  -0.00000  -0.10816
   0.00000   0.00000  -0.48616
   0.00000   0.00000   0.48616
 vibration    25
  -0.00000   0.00000  -0.48617
  -0.00000   0.00000   0.48617
  -0.00000   0.00000   0.10768
  -0.00000  -0.00000  -0.10768
   0.00000   0.00000  -0.04467
   0.00000  -0.00000   0.04467
   0.00000   0.00000   0.00714
  -0.00000   0.00000  -0.00714
  -0.00000  -0.00000  -0.00714
  -0.00000   0.00000   0.00714
   0.00000  -0.00000   0.04467
  -0.00000   0.00000  -0.04467
   0.00000  -0.00000  -0.10768
   0.00000   0.00000   0.10768
   0.00000   0.00000   0.48617
   0.00000  -0.00000  -0.48617
 vibration    26
   0.04990  -0.25512  -0.00000
   0.04990   0.25512   0.00000
   0.10841  -0.22297   0.00000
   0.10841   0.22297  -0.00000
  -0.22473   0.02407   0.00000
  -0.22473  -0.02407  -0.00000
   0.11089   0.23995  -0.00000
   0.11089  -0.23995  -0.00000
   0.11089   0.23995   0.00000
   0.11089  -0.23995  -0.00000
  -0.22473   0.02407  -0.00000
  -0.22473  -0.02407   0.00000
   0.10841  -0.22297  -0.00000
   0.10841   0.22297  -0.00000
   0.04990  -0.25512   0.00000
   0.04990   0.25512  -0.00000
 vibration    27
  -0.35609  -0.00394  -0.00000
   0.35609  -0.00394   0.00000
  -0.05068   0.16061  -0.00000
   0.05068   0.16061  -0.00000
   0.16801  -0.15773   0.00000
  -0.16801  -0.15773   0.00000
   0.09971  -0.17825  -0.00000
  -0.09971  -0.17825  -0.00000
  -0.09971   0.17825   0.00000
   0.09971   0.17825   0.00000
  -0.16801   0.15773  -0.00000
   0.16801   0.15773  -0.00000
   0.05068  -0.16061   0.00000
  -0.05068  -0.16061   0.00000
   0.35609   0.00394   0.00000
  -0.35609   0.00394   0.00000
 vibration    28
  -0.39969  -0.25326  -0.00000
  -0.39969   0.25326   0.00000
  -0.01527  -0.03283   0.00000
  -0.01527   0.03283  -0.00000
   0.10923   0.04132   0.00000
   0.10923  -0.04132  -0.00000
  -0.06023   0.08676   0.00000
  -0.06023  -0.08676   0.00000
  -0.06023   0.08676  -0.00000
  -0.06023  -0.08676  -0.00000
   0.10923   0.04132   0.00000
   0.10923  -0.04132   0.00000
  -0.01527  -0.03283  -0.00000
  -0.01527   0.03283   0.00000
  -0.39969  -0.25326   0.00000
  -0.39969   0.25326   0.00000
 vibration    29
  -0.40813  -0.20070   0.00000
   0.40813  -0.20070   0.00000
  -0.07691  -0.01266   0.00000
   0.07691  -0.01266  -0.00000
   0.11359   0.00361   0.00000
  -0.11359   0.00361  -0.00000
   0.15325   0.02591   0.00000
  -0.15325   0.02591   0.00000
   0.15325   0.02591   0.00000
  -0.15325   0.02591  -0.00000
   0.11359   0.00361   0.00000
  -0.11359   0.00361  -0.00000
  -0.07691  -0.01266   0.00000
   0.07691  -0.01266   0.00000
  -0.40813  -0.20070  -0.00000
   0.40813  -0.20070   0.00000
 vibration    30
   0.41419   0.22666  -0.00000
   0.41419  -0.22666   0.00000
  -0.00855  -0.01365   0.00000
  -0.00855   0.01365  -0.00000
  -0.08397  -0.06378  -0.00000
  -0.08397   0.06378   0.00000
   0.12125  -0.03154   0.00000
   0.12125   0.03154   0.00000
  -0.12125   0.03154  -0.00000
  -0.12125  -0.03154  -0.00000
   0.08397   0.06378  -0.00000
   0.08397  -0.06378   0.00000
   0.00855   0.01365   0.00000
   0.00855  -0.01365  -0.00000
  -0.41419  -0.22666   0.00000
  -0.41419   0.22666  -0.00000
 vibration    31
  -0.33608  -0.01260  -0.00000
   0.33608  -0.01260   0.00000
  -0.04525   0.14192  -0.00000
   0.04525   0.14192   0.00000
  -0.12166  -0.28212  -0.00000
   0.12166  -0.28212   0.00000
  -0.01462   0.14175   0.00000
   0.01462   0.14175   0.00000
  -0.01462   0.14175  -0.00000
   0.01462   0.14175  -0.00000
  -0.12166  -0.28212   0.00000
   0.12166  -0.28212   0.00000
  -0.04525   0.14192   0.00000
   0.04525   0.14192  -0.00000
  -0.33608  -0.01260   0.00000
   0.33608  -0.01260  -0.00000
 vibration    32
  -0.40610  -0.26615  -0.00000
   0.40610  -0.26615  -0.00000
  -0.02025  -0.04286  -0.00000
   0.02025  -0.04286   0.00000
   0.05693   0.04859  -0.00000
  -0.05693   0.04859   0.00000
   0.04046   0.06901  -0.00000
  -0.04046   0.06901   0.00000
  -0.04046  -0.06901   0.00000
   0.04046  -0.06901   0.00000
  -0.05693  -0.04859  -0.00000
   0.05693  -0.04859  -0.00000
   0.02025   0.04286   0.00000
  -0.02025   0.04286  -0.00000
   0.40610   0.26615   0.00000
  -0.40610   0.26615   0.00000
 vibration    33
   0.42512   0.11882   0.00000
  -0.42512   0.11882  -0.00000
   0.10088  -0.05773   0.00000
  -0.10088  -0.05773  -0.00000
   0.15699   0.06607   0.00000
  -0.15699   0.06607  -0.00000
   0.11241   0.00021   0.00000
  -0.11241   0.00021   0.00000
  -0.11241  -0.00021  -0.00000
   0.11241  -0.00021  -0.00000
  -0.15699  -0.06607   0.00000
   0.15699  -0.06607   0.00000
  -0.10088   0.05773  -0.00000
   0.10088   0.05773  -0.00000
  -0.42512  -0.11882  -0.00000
   0.42512  -0.11882   0.00000
 vibration    34
   0.41740   0.24149   0.00000
  -0.41740   0.24149  -0.00000
   0.03018   0.02048  -0.00000
  -0.03018   0.02048   0.00000
   0.03568  -0.05229  -0.00000
  -0.03568  -0.05229  -0.00000
   0.10944   0.01183   0.00000
  -0.10944   0.01183  -0.00000
   0.10944   0.01183  -0.00000
  -0.10944   0.01183  -0.00000
   0.03568  -0.05229  -0.00000
  -0.03568  -0.05229  -0.00000
   0.03018   0.02048   0.00000
  -0.03018   0.02048   0.00000
   0.41740   0.24149   0.00000
  -0.41740   0.24149   0.00000
 vibration    35
  -0.31865  -0.25795   0.00000
  -0.31865   0.25795  -0.00000
   0.04899  -0.05310  -0.00000
   0.04899   0.05310  -0.00000
  -0.09357   0.13396   0.00000
  -0.09357  -0.13396   0.00000
   0.17208   0.14280   0.00000
   0.17208  -0.14280  -0.00000
  -0.17208  -0.14280  -0.00000
  -0.17208   0.14280   0.00000
   0.09357  -0.13396   0.00000
   0.09357   0.13396  -0.00000
  -0.04899   0.05310   0.00000
  -0.04899  -0.05310  -0.00000
   0.31865   0.25795  -0.00000
   0.31865  -0.25795   0.00000
 vibration    36
  -0.13607  -0.24264  -0.00000
   0.13607  -0.24264   0.00000
   0.27656   0.00492  -0.00000
  -0.27656   0.00492   0.00000
   0.25501  -0.08179  -0.00000
  -0.25501  -0.08179   0.00000
  -0.12153   0.09804   0.00000
   0.12153   0.09804  -0.00000
  -0.12153   0.09804   0.00000
   0.12153   0.09804  -0.00000
   0.25501  -0.08179   0.00000
  -0.25501  -0.08179   0.00000
   0.27656   0.00492  -0.00000
  -0.27656   0.00492  -0.00000
  -0.13607  -0.24264  -0.00000
   0.13607  -0.24264   0.00000
 vibration    37
  -0.18321  -0.17981  -0.00000
   0.18321  -0.17981   0.00000
  -0.01904  -0.08196   0.00000
   0.01904  -0.08196  -0.00000
  -0.03103   0.25703  -0.00000
   0.03103   0.25703   0.00000
  -0.05804  -0.32653   0.00000
   0.05804  -0.32653  -0.00000
   0.05804   0.32653   0.00000
  -0.05804   0.32653  -0.00000
   0.03103  -0.25703   0.00000
  -0.03103  -0.25703   0.00000
   0.01904   0.08196  -0.00000
  -0.01904   0.08196  -0.00000
   0.18321   0.17981   0.00000
  -0.18321   0.17981  -0.00000
 vibration    38
   0.22115   0.24832   0.00000
  -0.22115   0.24832   0.00000
  -0.26025  -0.03460   0.00000
   0.26025  -0.03460   0.00000
  -0.10264   0.04444  -0.00000
   0.10264   0.04444   0.00000
   0.24079   0.00391   0.00000
  -0.24079   0.00391  -0.00000
  -0.24079  -0.00391  -0.00000
   0.24079  -0.00391  -0.00000
   0.10264  -0.04444   0.00000
  -0.10264  -0.04444   0.00000
   0.26025   0.03460  -0.00000
  -0.26025   0.03460   0.00000
  -0.22115  -0.24832   0.00000
   0.22115  -0.24832   0.00000
 vibration    39
  -0.42627  -0.20059   0.00000
  -0.42627   0.20059   0.00000
   0.07738   0.07393  -0.00000
   0.07738  -0.07393  -0.00000
  -0.07933   0.05829   0.00000
  -0.07933  -0.05829   0.00000
   0.03752  -0.07419  -0.00000
   0.03752   0.07419   0.00000
   0.03752  -0.07419   0.00000
   0.03752   0.07419  -0.00000
  -0.07933   0.05829  -0.00000
  -0.07933  -0.05829   0.00000
   0.07738   0.07393  -0.00000
   0.07738  -0.07393   0.00000
  -0.42627  -0.20059   0.00000
  -0.42627   0.20059  -0.00000
 vibration    40
  -0.41241  -0.13896   0.00000
  -0.41241   0.13896  -0.00000
   0.09453   0.13074   0.00000
   0.09453  -0.13074  -0.00000
  -0.09478  -0.03906  -0.00000
  -0.09478   0.03906  -0.00000
   0.03597  -0.15091   0.00000
   0.03597   0.15091  -0.00000
  -0.03597   0.15091  -0.00000
  -0.03597  -0.15091   0.00000
   0.09478   0.03906   0.00000
   0.09478  -0.03906  -0.00000
  -0.09453  -0.13074   0.00000
  -0.09453   0.13074   0.00000
   0.41241   0.13896  -0.00000
   0.41241  -0.13896   0.00000
 vibration    41
  -0.28542  -0.25325   0.00000
   0.28542  -0.25325   0.00000
   0.21926   0.04055   0.00000
  -0.21926   0.04055  -0.00000
  -0.16105   0.04447  -0.00000
   0.16105   0.04447   0.00000
   0.15080  -0.06345  -0.00000
  -0.15080  -0.06345  -0.00000
   0.15080  -0.06345   0.00000
  -0.15080  -0.06345  -0.00000
  -0.16105   0.04447  -0.00000
   0.16105   0.04447   0.00000
   0.21926   0.04055  -0.00000
  -0.21926   0.04055  -0.00000
  -0.28542  -0.25325   0.00000
   0.28542  -0.25325  -0.00000
 vibration    42
   0.19825  -0.01280  -0.00000
   0.19825   0.01280   0.00000
  -0.06299  -0.15027   0.00000
  -0.06299   0.15027  -0.00000
   0.01513   0.30689   0.00000
   0.01513  -0.30689  -0.00000
   0.01801  -0.29875  -0.00000
   0.01801   0.29875  -0.00000
  -0.01801   0.29875   0.00000
  -0.01801  -0.29875   0.00000
  -0.01513  -0.30689  -0.00000
  -0.01513   0.30689  -0.00000
   0.06299   0.15027  -0.00000
   0.06299  -0.15027   0.00000
  -0.19825   0.01280   0.00000
  -0.19825  -0.01280  -0.00000
 vibration    43
   0.26540  -0.00700   0.00000
   0.26540   0.00700  -0.00000
  -0.08515  -0.18797   0.00000
  -0.08515   0.18797   0.00000
   0.03112   0.33070  -0.00000
   0.03112  -0.33070   0.00000
   0.03148  -0.16003   0.00000
   0.03148   0.16003   0.00000
   0.03148  -0.16003   0.00000
   0.03148   0.16003  -0.00000
   0.03112   0.33070   0.00000
   0.03112  -0.33070   0.00000
  -0.08515  -0.18797   0.00000
  -0.08515   0.18797  -0.00000
   0.26540  -0.00700  -0.00000
   0.26540   0.00700  -0.00000
 vibration    44
   0.24597   0.21142   0.00000
  -0.24597   0.21142   0.00000
  -0.23104  -0.06455   0.00000
   0.23104  -0.06455   0.00000
   0.20353   0.00771  -0.00000
  -0.20353   0.00771   0.00000
  -0.21145   0.03263   0.00000
   0.21145   0.03263   0.00000
   0.21145  -0.03263   0.00000
  -0.21145  -0.03263  -0.00000
  -0.20353  -0.00771  -0.00000
   0.20353  -0.00771   0.00000
   0.23104   0.06455   0.00000
  -0.23104   0.06455   0.00000
  -0.24597  -0.21142  -0.00000
   0.24597  -0.21142  -0.00000
 vibration    45
   0.24234  -0.43528  -0.00000
   0.24234   0.43528   0.00000
  -0.01950   0.03770  -0.00000
  -0.01950  -0.03770  -0.00000
  -0.00115  -0.00067   0.00000
  -0.00115   0.00067   0.00000
   0.00040  -0.00051  -0.00000
   0.00040   0.00051  -0.00000
  -0.00040   0.00051  -0.00000
  -0.00040  -0.00051   0.00000
   0.00115   0.00067   0.00000
   0.00115  -0.00067  -0.00000
   0.01950  -0.03770   0.00000
   0.01950   0.03770   0.00000
  -0.24234   0.43528   0.00000
  -0.24234  -0.43528   0.00000
 vibration    46
  -0.24237   0.43527  -0.00000
  -0.24237  -0.43527   0.00000
   0.01950  -0.03766  -0.00000
   0.01950   0.03766  -0.00000
   0.00105   0.00076   0.00000
   0.00105  -0.00076   0.00000
  -0.00022   0.00027   0.00000
  -0.00022  -0.00027  -0.00000
  -0.00022   0.00027  -0.00000
  -0.00022  -0.00027   0.00000
   0.00105   0.00076  -0.00000
   0.00105  -0.00076   0.00000
   0.01950  -0.03766   0.00000
   0.01950   0.03766   0.00000
  -0.24237   0.43527   0.00000
  -0.24237  -0.43527  -0.00000
 vibration    47
   0.24691  -0.43261  -0.00000
  -0.24691  -0.43261  -0.00000
  -0.02208   0.03738   0.00000
   0.02208   0.03738  -0.00000
  -0.00037  -0.00072   0.00000
   0.00037  -0.00072   0.00000
  -0.00001  -0.00033   0.00000
   0.00001  -0.00033   0.00000
  -0.00001  -0.00033   0.00000
   0.00001  -0.00033  -0.00000
  -0.00037  -0.00072  -0.00000
   0.00037  -0.00072  -0.00000
  -0.02208   0.03738   0.00000
   0.02208   0.03738   0.00000
   0.24691  -0.43261  -0.00000
  -0.24691  -0.43261   0.00000
 vibration    48
   0.24700  -0.43256  -0.00000
  -0.24700  -0.43256   0.00000
  -0.02200   0.03741   0.00000
   0.02200   0.03741   0.00000
  -0.00040  -0.00080   0.00000
   0.00040  -0.00080   0.00000
  -0.00003  -0.00033  -0.00000
   0.00003  -0.00033  -0.00000
   0.00003   0.00033  -0.00000
  -0.00003   0.00033   0.00000
   0.00040   0.00080   0.00000
  -0.00040   0.00080  -0.00000
   0.02200  -0.03741  -0.00000
  -0.02200  -0.03741  -0.00000
  -0.24700   0.43256   0.00000
   0.24700   0.43256  -0.00000
