
     Program PHONON v.5.0.2 (svn rev. 10600) starts on  5Jul2014 at 20:46: 5 

     This program is part of the open-source Quantum ESPRESSO suite
     for quantum simulation of materials; please cite
         "P. Giannozzi et al., J. Phys.:Condens. Matter 21 395502 (2009);
          URL http://www.quantum-espresso.org", 
     in publications or presentations arising from this work. More details at
     http://www.quantum-espresso.org/quote

     Parallel version (MPI), running on     4 processors
     K-points division:     npool     =       2
     R & G space division:  proc/nbgrp/npool/nimage =       2
     Run is not recoverable starting from scratch

   Info: using nr1, nr2, nr3 values from input

   Info: using nr1s, nr2s, nr3s values from input

     IMPORTANT: XC functional enforced from input :
     Exchange-correlation      = SLA  PW   PBE  PBE ( 1  4  3  4 0)
     Any further DFT definition will be discarded
     Please, verify this is what you really want

               file H.pbe-vbc.UPF: wavefunction(s)  0S renormalized

     Parallelization info
     --------------------
     sticks:   dense  smooth     PW     G-vecs:    dense   smooth      PW
     Min        1021    1021    290                38653    38653    5837
     Max        1022    1022    291                38654    38654    5838
     Sum        2043    2043    581                77307    77307   11675


     Calculation of q =    0.0000000   0.0000000   0.0000000

                                                                                

     bravais-lattice index     =            8
     lattice parameter (alat)  =       8.0518  a.u.
     unit-cell volume          =    2760.3463 (a.u.)^3
     number of atoms/cell      =           14
     number of atomic types    =            2
     kinetic-energy cut-off    =      35.0000  Ry
     charge density cut-off    =     140.0000  Ry
     convergence threshold     =      1.0E-14
     beta                      =       0.7000
     number of iterations used =            4
     Exchange-correlation      = SLA  PW   PBE  PBE ( 1  4  3  4 0)


     celldm(1)=    8.05183  celldm(2)=    2.81634  celldm(3)=    1.87756
     celldm(4)=    0.00000  celldm(5)=    0.00000  celldm(6)=    0.00000

     crystal axes: (cart. coord. in units of alat)
               a(1) = (  1.0000  0.0000  0.0000 )  
               a(2) = (  0.0000  2.8163  0.0000 )  
               a(3) = (  0.0000  0.0000  1.8776 )  

     reciprocal axes: (cart. coord. in units 2 pi/alat)
               b(1) = (  1.0000  0.0000  0.0000 )  
               b(2) = (  0.0000  0.3551  0.0000 )  
               b(3) = (  0.0000  0.0000  0.5326 )  


     Atoms inside the unit cell: 

     Cartesian axes

     site n.  atom      mass           positions (alat units)
        1     H    1.0079   tau(    1) = (    0.28211   -0.80571    0.00000  )
        2     H    1.0079   tau(    2) = (    0.71789   -0.80571    0.00000  )
        3     C   12.0107   tau(    3) = (    0.15846   -0.58164    0.00000  )
        4     C   12.0107   tau(    4) = (    0.84154   -0.58164    0.00000  )
        5     C   12.0107   tau(    5) = (    0.33354   -0.29015    0.00000  )
        6     C   12.0107   tau(    6) = (    0.66646   -0.29015    0.00000  )
        7     C   12.0107   tau(    7) = (    0.17020   -0.00000   -0.00000  )
        8     C   12.0107   tau(    8) = (    0.82980    0.00000   -0.00000  )
        9     C   12.0107   tau(    9) = (    0.33354    0.29015   -0.00000  )
       10     C   12.0107   tau(   10) = (    0.66646    0.29015   -0.00000  )
       11     C   12.0107   tau(   11) = (    0.15846    0.58164    0.00000  )
       12     C   12.0107   tau(   12) = (    0.84154    0.58164    0.00000  )
       13     H    1.0079   tau(   13) = (    0.28211    0.80571   -0.00000  )
       14     H    1.0079   tau(   14) = (    0.71789    0.80571    0.00000  )

     Computing dynamical matrix for 
                    q = (   0.0000000   0.0000000   0.0000000 )

      9 Sym.Ops. (with q -> -q+G )


     G cutoff =  229.9098  (  38653 G-vectors)     FFT grid: ( 32, 90, 60)
     number of k points=     2
                       cart. coord. in units 2pi/alat
        k(    1) = (   0.0000000   0.0000000   0.0000000), wk =   1.0000000
        k(    2) = (  -0.5000000   0.0000000   0.0000000), wk =   1.0000000

     PseudoPot. # 1 for C  read from file:
     ../PP_LIBRARY/C.pbe-mt_gipaw.UPF
     MD5 check sum: 5ac2f21f2c440b14befe521540822c15
     Pseudo is Norm-conserving, Zval =  4.0
     Generated by new atomic code, or converted to UPF format
     Using radial grid of 1073 points,  1 beta functions with: 
                l(1) =   0

     PseudoPot. # 2 for H  read from file:
     ../PP_LIBRARY/H.pbe-vbc.UPF
     MD5 check sum: 0ad67d0772b4eb71cad78a7d32695431
     Pseudo is Norm-conserving, Zval =  1.0
     Generated by new atomic code, or converted to UPF format
     Using radial grid of  325 points,  0 beta functions with: 

     Mode symmetry, D_2h (mmm)  point group:


     Electric field:
     Dielectric constant
     Born effective charges as d Force / d E
     Raman tensor


     Atomic displacements:
     There are  42 irreducible representations

     Representation     1      1 modes -A_g  To be done

     Representation     2      1 modes -A_g  To be done

     Representation     3      1 modes -A_g  To be done

     Representation     4      1 modes -A_g  To be done

     Representation     5      1 modes -A_g  To be done

     Representation     6      1 modes -A_g  To be done

     Representation     7      1 modes -A_g  To be done

     Representation     8      1 modes -B_1g  To be done

     Representation     9      1 modes -B_1g  To be done

     Representation    10      1 modes -B_1g  To be done

     Representation    11      1 modes -B_1g  To be done

     Representation    12      1 modes -B_1g  To be done

     Representation    13      1 modes -B_1g  To be done

     Representation    14      1 modes -B_1g  To be done

     Representation    15      1 modes -B_2g  To be done

     Representation    16      1 modes -B_2g  To be done

     Representation    17      1 modes -B_2g  To be done

     Representation    18      1 modes -B_2g  To be done

     Representation    19      1 modes -B_3g  To be done

     Representation    20      1 modes -B_3g  To be done

     Representation    21      1 modes -B_3g  To be done

     Representation    22      1 modes -A_u  To be done

     Representation    23      1 modes -A_u  To be done

     Representation    24      1 modes -A_u  To be done

     Representation    25      1 modes -B_1u  To be done

     Representation    26      1 modes -B_1u  To be done

     Representation    27      1 modes -B_1u  To be done

     Representation    28      1 modes -B_1u  To be done

     Representation    29      1 modes -B_2u  To be done

     Representation    30      1 modes -B_2u  To be done

     Representation    31      1 modes -B_2u  To be done

     Representation    32      1 modes -B_2u  To be done

     Representation    33      1 modes -B_2u  To be done

     Representation    34      1 modes -B_2u  To be done

     Representation    35      1 modes -B_2u  To be done

     Representation    36      1 modes -B_3u  To be done

     Representation    37      1 modes -B_3u  To be done

     Representation    38      1 modes -B_3u  To be done

     Representation    39      1 modes -B_3u  To be done

     Representation    40      1 modes -B_3u  To be done

     Representation    41      1 modes -B_3u  To be done

     Representation    42      1 modes -B_3u  To be done



     Alpha used in Ewald sum =   1.3000
     PHONON       :    18.28s CPU        18.36s WALL


     Electric Fields Calculation

      iter #   1 total cpu time :    54.0 secs   av.it.:   6.3
      thresh= 1.000E-02 alpha_mix =  0.700 |ddv_scf|^2 =  3.139E-05

      iter #   2 total cpu time :    70.7 secs   av.it.:  10.7
      thresh= 5.602E-04 alpha_mix =  0.700 |ddv_scf|^2 =  3.025E-04

      iter #   3 total cpu time :    81.2 secs   av.it.:   8.3
      thresh= 1.739E-03 alpha_mix =  0.700 |ddv_scf|^2 =  3.972E-06

      iter #   4 total cpu time :    94.8 secs   av.it.:  10.0
      thresh= 1.993E-04 alpha_mix =  0.700 |ddv_scf|^2 =  2.567E-07

      iter #   5 total cpu time :   111.1 secs   av.it.:  10.3
      thresh= 5.067E-05 alpha_mix =  0.700 |ddv_scf|^2 =  2.938E-09

      iter #   6 total cpu time :   127.7 secs   av.it.:  11.7
      thresh= 5.421E-06 alpha_mix =  0.700 |ddv_scf|^2 =  9.219E-10

      iter #   7 total cpu time :   141.4 secs   av.it.:  10.7
      thresh= 3.036E-06 alpha_mix =  0.700 |ddv_scf|^2 =  1.027E-10

      iter #   8 total cpu time :   153.5 secs   av.it.:  11.3
      thresh= 1.013E-06 alpha_mix =  0.700 |ddv_scf|^2 =  1.610E-11

      iter #   9 total cpu time :   165.6 secs   av.it.:  11.3
      thresh= 4.013E-07 alpha_mix =  0.700 |ddv_scf|^2 =  9.728E-13

      iter #  10 total cpu time :   178.6 secs   av.it.:  12.0
      thresh= 9.863E-08 alpha_mix =  0.700 |ddv_scf|^2 =  1.312E-12

      iter #  11 total cpu time :   190.2 secs   av.it.:  10.7
      thresh= 1.145E-07 alpha_mix =  0.700 |ddv_scf|^2 =  2.617E-13

      iter #  12 total cpu time :   201.9 secs   av.it.:  10.7
      thresh= 5.115E-08 alpha_mix =  0.700 |ddv_scf|^2 =  1.136E-14

      iter #  13 total cpu time :   215.2 secs   av.it.:  11.7
      thresh= 1.066E-08 alpha_mix =  0.700 |ddv_scf|^2 =  8.546E-16

     End of electric fields calculation

          Dielectric constant in cartesian axis 

          (      30.793977437       0.000000000       0.000000000 )
          (       0.000000000       1.714313886       0.000000000 )
          (       0.000000000       0.000000000       1.253788294 )

          Effective charges (d Force / dE) in cartesian axis

           atom      1   H  
      Ex  (        0.14884       -0.15227        0.00000 )
      Ey  (        0.10896       -0.04068        0.00000 )
      Ez  (        0.00000        0.00000        0.12823 )
           atom      2   H  
      Ex  (        0.14884        0.15227        0.00000 )
      Ey  (       -0.10896       -0.04068        0.00000 )
      Ez  (        0.00000        0.00000        0.12823 )
           atom      3   C  
      Ex  (       -1.09761        3.02445        0.00000 )
      Ey  (       -0.01902        0.17010        0.00000 )
      Ez  (        0.00000        0.00000       -0.13569 )
           atom      4   C  
      Ex  (       -1.09761       -3.02445        0.00000 )
      Ey  (        0.01902        0.17010        0.00000 )
      Ez  (        0.00000        0.00000       -0.13569 )
           atom      5   C  
      Ex  (       -2.23027        1.40428       -0.00000 )
      Ey  (        0.33357       -0.06523        0.00000 )
      Ez  (       -0.00000        0.00000        0.03016 )
           atom      6   C  
      Ex  (       -2.23027       -1.40428       -0.00000 )
      Ey  (       -0.33357       -0.06523        0.00000 )
      Ez  (        0.00000        0.00000        0.03016 )
           atom      7   C  
      Ex  (        1.83417       -0.00000        0.00000 )
      Ey  (        0.00000       -0.05857        0.00000 )
      Ez  (        0.00000        0.00000        0.02003 )
           atom      8   C  
      Ex  (        1.83417        0.00000        0.00000 )
      Ey  (        0.00000       -0.05857        0.00000 )
      Ez  (        0.00000        0.00000        0.02003 )
           atom      9   C  
      Ex  (       -2.23027       -1.40428        0.00000 )
      Ey  (       -0.33357       -0.06523       -0.00000 )
      Ez  (       -0.00000        0.00000        0.03016 )
           atom     10   C  
      Ex  (       -2.23027        1.40428       -0.00000 )
      Ey  (        0.33357       -0.06523        0.00000 )
      Ez  (       -0.00000       -0.00000        0.03016 )
           atom     11   C  
      Ex  (       -1.09761       -3.02445        0.00000 )
      Ey  (        0.01902        0.17010        0.00000 )
      Ez  (        0.00000        0.00000       -0.13569 )
           atom     12   C  
      Ex  (       -1.09761        3.02445        0.00000 )
      Ey  (       -0.01902        0.17010        0.00000 )
      Ez  (        0.00000        0.00000       -0.13569 )
           atom     13   H  
      Ex  (        0.14884        0.15227       -0.00000 )
      Ey  (       -0.10896       -0.04068       -0.00000 )
      Ez  (        0.00000        0.00000        0.12823 )
           atom     14   H  
      Ex  (        0.14884       -0.15227        0.00000 )
      Ey  (        0.10896       -0.04068       -0.00000 )
      Ez  (        0.00000        0.00000        0.12823 )

     Calling punch_plot_e
     Writing on file  gar-w_03-1H-ph.fildrho                                                                                                                                                                                                                                          

     Computing Pc [DH,Drho] |psi> 

     Derivative coefficient:  0.001000    Threshold: 1.00E-12
     Non-scf  u_k: avg # of iterations = 16.3
     Non-scf Du_k: avg # of iterations = 30.2

          Dielectric constant from finite-differences

          (      30.778151473       0.000000000       0.000000000 )
          (       0.000000000       1.714352971       0.000000000 )
          (       0.000000000       0.000000000       1.253781851 )

     Computing Second order response 


      iter #   1   av.it.:   9.5
      thresh= 1.000E-02 alpha_mix =  0.700 |ddv_scf|^2 =  9.583E-04


      iter #   2   av.it.:   9.3
      thresh= 3.096E-03 alpha_mix =  0.700 |ddv_scf|^2 =  2.897E-04


      iter #   3   av.it.:   8.3
      thresh= 1.702E-03 alpha_mix =  0.700 |ddv_scf|^2 =  6.047E-06


      iter #   4   av.it.:   9.5
      thresh= 2.459E-04 alpha_mix =  0.700 |ddv_scf|^2 =  2.650E-06


      iter #   5   av.it.:   9.2
      thresh= 1.628E-04 alpha_mix =  0.700 |ddv_scf|^2 =  3.543E-07


      iter #   6   av.it.:   9.3
      thresh= 5.952E-05 alpha_mix =  0.700 |ddv_scf|^2 =  5.246E-09


      iter #   7   av.it.:  10.0
      thresh= 7.243E-06 alpha_mix =  0.700 |ddv_scf|^2 =  2.982E-09


      iter #   8   av.it.:   9.2
      thresh= 5.460E-06 alpha_mix =  0.700 |ddv_scf|^2 =  1.273E-11


      iter #   9   av.it.:  10.2
      thresh= 3.568E-07 alpha_mix =  0.700 |ddv_scf|^2 =  3.936E-12


      iter #  10   av.it.:  10.2
      thresh= 1.984E-07 alpha_mix =  0.700 |ddv_scf|^2 =  6.301E-13


      iter #  11   av.it.:  10.2
      thresh= 7.938E-08 alpha_mix =  0.700 |ddv_scf|^2 =  1.899E-13


      iter #  12   av.it.:  10.3
      thresh= 4.357E-08 alpha_mix =  0.700 |ddv_scf|^2 =  8.038E-14


      iter #  13   av.it.:   9.3
      thresh= 2.835E-08 alpha_mix =  0.700 |ddv_scf|^2 =  2.006E-15

          Raman tensor (au^-1) in cartesian axis 

           atom      1
          (       0.664735398      -0.007862947       0.000000000 )
          (      -0.007862947       0.011455170       0.000000000 )
          (       0.000000000       0.000000000       0.000420683 )

          (       0.109910490       0.045691031       0.000000000 )
          (       0.045691031      -0.053438482       0.000000000 )
          (       0.000000000       0.000000000      -0.003141788 )

          (      -0.000000000       0.000000000      -0.031312700 )
          (       0.000000000      -0.000000000      -0.001689833 )
          (      -0.031312700      -0.001689833      -0.000000000 )

           atom      2
          (      -0.664735398      -0.007862947       0.000000000 )
          (      -0.007862947      -0.011455170       0.000000000 )
          (       0.000000000       0.000000000      -0.000420683 )

          (       0.109910490      -0.045691031       0.000000000 )
          (      -0.045691031      -0.053438482      -0.000000000 )
          (       0.000000000      -0.000000000      -0.003141788 )

          (       0.000000000       0.000000000       0.031312700 )
          (       0.000000000      -0.000000000      -0.001689833 )
          (       0.031312700      -0.001689833       0.000000000 )

           atom      3
          (      38.243098126       0.447658275       0.000000000 )
          (       0.447658275       0.079035691       0.000000000 )
          (       0.000000000       0.000000000       0.013502834 )

          (      22.757775593       0.730967897       0.000000000 )
          (       0.730967897       0.039828181       0.000000000 )
          (       0.000000000       0.000000000      -0.001873237 )

          (       0.000000000      -0.000000000       0.203417473 )
          (      -0.000000000       0.000000000      -0.027155848 )
          (       0.203417473      -0.027155848       0.000000000 )

           atom      4
          (     -38.243098126       0.447658275       0.000000000 )
          (       0.447658275      -0.079035691       0.000000000 )
          (       0.000000000       0.000000000      -0.013502834 )

          (      22.757775593      -0.730967897       0.000000000 )
          (      -0.730967897       0.039828181       0.000000000 )
          (       0.000000000       0.000000000      -0.001873237 )

          (       0.000000000      -0.000000000      -0.203417473 )
          (      -0.000000000       0.000000000      -0.027155848 )
          (      -0.203417473      -0.027155848       0.000000000 )

           atom      5
          (     -37.891110526       0.028816674       0.000000000 )
          (       0.028816674      -0.012832438       0.000000000 )
          (       0.000000000       0.000000000      -0.001747720 )

          (     -22.260305335      -1.421403176       0.000000000 )
          (      -1.421403176      -0.077304359      -0.000000000 )
          (       0.000000000      -0.000000000      -0.000508765 )

          (      -0.000000000       0.000000000      -0.140727200 )
          (       0.000000000       0.000000000       0.002990685 )
          (      -0.140727200       0.002990685       0.000000000 )

           atom      6
          (      37.891110526       0.028816674       0.000000000 )
          (       0.028816674       0.012832438       0.000000000 )
          (       0.000000000       0.000000000       0.001747720 )

          (     -22.260305335       1.421403176       0.000000000 )
          (       1.421403176      -0.077304359       0.000000000 )
          (       0.000000000       0.000000000      -0.000508765 )

          (       0.000000000      -0.000000000       0.140727200 )
          (      -0.000000000       0.000000000       0.002990685 )
          (       0.140727200       0.002990685       0.000000000 )

           atom      7
          (      -5.192837066       0.000000000       0.000000000 )
          (       0.000000000      -0.111444180       0.000000000 )
          (       0.000000000       0.000000000       0.000015209 )

          (       0.000000000       1.443289199       0.000000000 )
          (       1.443289199       0.000000000       0.000000000 )
          (       0.000000000       0.000000000       0.000000000 )

          (       0.000000000       0.000000000      -0.032969502 )
          (       0.000000000       0.000000000       0.000000000 )
          (      -0.032969502       0.000000000       0.000000000 )

           atom      8
          (       5.192837066       0.000000000       0.000000000 )
          (       0.000000000       0.111444180       0.000000000 )
          (       0.000000000       0.000000000      -0.000015209 )

          (       0.000000000      -1.443289199       0.000000000 )
          (      -1.443289199       0.000000000       0.000000000 )
          (       0.000000000       0.000000000       0.000000000 )

          (       0.000000000       0.000000000       0.032969502 )
          (       0.000000000       0.000000000       0.000000000 )
          (       0.032969502       0.000000000       0.000000000 )

           atom      9
          (     -37.891110526      -0.028816674       0.000000000 )
          (      -0.028816674      -0.012832438       0.000000000 )
          (       0.000000000       0.000000000      -0.001747720 )

          (      22.260305335      -1.421403176       0.000000000 )
          (      -1.421403176       0.077304359       0.000000000 )
          (       0.000000000       0.000000000       0.000508765 )

          (       0.000000000      -0.000000000      -0.140727200 )
          (      -0.000000000      -0.000000000      -0.002990685 )
          (      -0.140727200      -0.002990685       0.000000000 )

           atom     10
          (      37.891110526      -0.028816674       0.000000000 )
          (      -0.028816674       0.012832438       0.000000000 )
          (       0.000000000       0.000000000       0.001747720 )

          (      22.260305335       1.421403176      -0.000000000 )
          (       1.421403176       0.077304359       0.000000000 )
          (      -0.000000000       0.000000000       0.000508765 )

          (      -0.000000000      -0.000000000       0.140727200 )
          (      -0.000000000      -0.000000000      -0.002990685 )
          (       0.140727200      -0.002990685       0.000000000 )

           atom     11
          (      38.243098126      -0.447658275       0.000000000 )
          (      -0.447658275       0.079035691       0.000000000 )
          (       0.000000000       0.000000000       0.013502834 )

          (     -22.757775593       0.730967897       0.000000000 )
          (       0.730967897      -0.039828181      -0.000000000 )
          (       0.000000000      -0.000000000       0.001873237 )

          (       0.000000000      -0.000000000       0.203417473 )
          (      -0.000000000       0.000000000       0.027155848 )
          (       0.203417473       0.027155848       0.000000000 )

           atom     12
          (     -38.243098126      -0.447658275       0.000000000 )
          (      -0.447658275      -0.079035691       0.000000000 )
          (       0.000000000       0.000000000      -0.013502834 )

          (     -22.757775593      -0.730967897       0.000000000 )
          (      -0.730967897      -0.039828181       0.000000000 )
          (       0.000000000       0.000000000       0.001873237 )

          (      -0.000000000      -0.000000000      -0.203417473 )
          (      -0.000000000       0.000000000       0.027155848 )
          (      -0.203417473       0.027155848       0.000000000 )

           atom     13
          (       0.664735398       0.007862947       0.000000000 )
          (       0.007862947       0.011455170       0.000000000 )
          (       0.000000000       0.000000000       0.000420683 )

          (      -0.109910490       0.045691031       0.000000000 )
          (       0.045691031       0.053438482       0.000000000 )
          (       0.000000000       0.000000000       0.003141788 )

          (       0.000000000      -0.000000000      -0.031312700 )
          (      -0.000000000      -0.000000000       0.001689833 )
          (      -0.031312700       0.001689833      -0.000000000 )

           atom     14
          (      -0.664735398       0.007862947       0.000000000 )
          (       0.007862947      -0.011455170       0.000000000 )
          (       0.000000000       0.000000000      -0.000420683 )

          (      -0.109910490      -0.045691031       0.000000000 )
          (      -0.045691031       0.053438482       0.000000000 )
          (       0.000000000       0.000000000       0.003141788 )

          (      -0.000000000       0.000000000       0.031312700 )
          (       0.000000000      -0.000000000       0.001689833 )
          (       0.031312700       0.001689833       0.000000000 )


     Raman tensor (A^2)

     atom #    1    pol.  1
      0.408888389268E+02     -0.483661299120E+00      0.000000000000E+00
     -0.483661299120E+00      0.704624143907E+00      0.000000000000E+00
      0.000000000000E+00      0.000000000000E+00      0.258768276476E-01
     atom #    1    pol.  2
      0.676075372141E+01      0.281052160573E+01      0.000000000000E+00
      0.281052160573E+01     -0.328707859334E+01      0.000000000000E+00
      0.000000000000E+00      0.000000000000E+00     -0.193255963525E+00
     atom #    1    pol.  3
     -0.277499384006E-19      0.000000000000E+00     -0.192608963659E+01
      0.000000000000E+00     -0.170828783391E-22     -0.103944090539E+00
     -0.192608963659E+01     -0.103944090539E+00     -0.192182381315E-23
     atom #    2    pol.  1
     -0.408888389268E+02     -0.483661299120E+00      0.000000000000E+00
     -0.483661299120E+00     -0.704624143907E+00      0.000000000000E+00
      0.000000000000E+00      0.000000000000E+00     -0.258768276476E-01
     atom #    2    pol.  2
      0.676075372141E+01     -0.281052160573E+01      0.000000000000E+00
     -0.281052160573E+01     -0.328707859334E+01     -0.273326053426E-22
      0.000000000000E+00     -0.273326053426E-22     -0.193255963525E+00
     atom #    2    pol.  3
      0.000000000000E+00      0.000000000000E+00      0.192608963659E+01
      0.000000000000E+00     -0.683315133565E-23     -0.103944090539E+00
      0.192608963659E+01     -0.103944090539E+00      0.000000000000E+00
     atom #    3    pol.  1
      0.235238846001E+04      0.275361100742E+02      0.000000000000E+00
      0.275361100742E+02      0.486160002829E+01      0.000000000000E+00
      0.000000000000E+00      0.000000000000E+00      0.830578916761E+00
     atom #    3    pol.  2
      0.139986380035E+04      0.449628960256E+02      0.000000000000E+00
      0.449628960256E+02      0.244988919956E+01      0.000000000000E+00
      0.000000000000E+00      0.000000000000E+00     -0.115225537665E+00
     atom #    3    pol.  3
      0.000000000000E+00     -0.123164776993E-20      0.125125039334E+02
     -0.123164776993E-20      0.000000000000E+00     -0.167039563182E+01
      0.125125039334E+02     -0.167039563182E+01      0.000000000000E+00
     atom #    4    pol.  1
     -0.235238846001E+04      0.275361100742E+02      0.000000000000E+00
      0.275361100742E+02     -0.486160002829E+01      0.000000000000E+00
      0.000000000000E+00      0.000000000000E+00     -0.830578916761E+00
     atom #    4    pol.  2
      0.139986380035E+04     -0.449628960256E+02      0.000000000000E+00
     -0.449628960256E+02      0.244988919956E+01      0.000000000000E+00
      0.000000000000E+00      0.000000000000E+00     -0.115225537665E+00
     atom #    4    pol.  3
      0.000000000000E+00     -0.123164776993E-20     -0.125125039334E+02
     -0.123164776993E-20      0.000000000000E+00     -0.167039563182E+01
     -0.125125039334E+02     -0.167039563182E+01      0.000000000000E+00
     atom #    5    pol.  1
     -0.233073719199E+04      0.177255546186E+01      0.000000000000E+00
      0.177255546186E+01     -0.789341875603E+00      0.000000000000E+00
      0.000000000000E+00      0.000000000000E+00     -0.107504798710E+00
     atom #    5    pol.  2
     -0.136926368296E+04     -0.874325719658E+02      0.000000000000E+00
     -0.874325719658E+02     -0.475510330130E+01     -0.218660842741E-21
      0.000000000000E+00     -0.218660842741E-21     -0.312948835779E-01
     atom #    5    pol.  3
     -0.110999753602E-18      0.000000000000E+00     -0.865633426730E+01
      0.000000000000E+00      0.000000000000E+00      0.183961372213E+00
     -0.865633426730E+01      0.183961372213E+00      0.000000000000E+00
     atom #    6    pol.  1
      0.233073719199E+04      0.177255546186E+01      0.000000000000E+00
      0.177255546186E+01      0.789341875603E+00      0.000000000000E+00
      0.000000000000E+00      0.000000000000E+00      0.107504798710E+00
     atom #    6    pol.  2
     -0.136926368296E+04      0.874325719658E+02      0.000000000000E+00
      0.874325719658E+02     -0.475510330130E+01      0.000000000000E+00
      0.000000000000E+00      0.000000000000E+00     -0.312948835779E-01
     atom #    6    pol.  3
      0.000000000000E+00     -0.153955971241E-21      0.865633426730E+01
     -0.153955971241E-21      0.546652106852E-22      0.183961372213E+00
      0.865633426730E+01      0.183961372213E+00      0.000000000000E+00
     atom #    7    pol.  1
     -0.319418943219E+03      0.000000000000E+00      0.000000000000E+00
      0.000000000000E+00     -0.685509325349E+01      0.000000000000E+00
      0.000000000000E+00      0.000000000000E+00      0.935544729964E-03
     atom #    7    pol.  2
      0.000000000000E+00      0.887788130047E+02      0.000000000000E+00
      0.887788130047E+02      0.000000000000E+00      0.000000000000E+00
      0.000000000000E+00      0.000000000000E+00      0.000000000000E+00
     atom #    7    pol.  3
      0.554998768012E-19      0.000000000000E+00     -0.202800188979E+01
      0.000000000000E+00      0.000000000000E+00      0.000000000000E+00
     -0.202800188979E+01      0.000000000000E+00      0.000000000000E+00
     atom #    8    pol.  1
      0.319418943219E+03      0.000000000000E+00      0.000000000000E+00
      0.000000000000E+00      0.685509325349E+01      0.000000000000E+00
      0.000000000000E+00      0.000000000000E+00     -0.935544729964E-03
     atom #    8    pol.  2
      0.000000000000E+00     -0.887788130047E+02      0.000000000000E+00
     -0.887788130047E+02      0.000000000000E+00      0.000000000000E+00
      0.000000000000E+00      0.000000000000E+00      0.000000000000E+00
     atom #    8    pol.  3
      0.554998768012E-19      0.000000000000E+00      0.202800188979E+01
      0.000000000000E+00      0.000000000000E+00      0.000000000000E+00
      0.202800188979E+01      0.000000000000E+00      0.000000000000E+00
     atom #    9    pol.  1
     -0.233073719199E+04     -0.177255546186E+01      0.000000000000E+00
     -0.177255546186E+01     -0.789341875603E+00      0.000000000000E+00
      0.000000000000E+00      0.000000000000E+00     -0.107504798710E+00
     atom #    9    pol.  2
      0.136926368296E+04     -0.874325719658E+02      0.000000000000E+00
     -0.874325719658E+02      0.475510330130E+01      0.000000000000E+00
      0.000000000000E+00      0.000000000000E+00      0.312948835779E-01
     atom #    9    pol.  3
      0.554998768012E-19     -0.153955971241E-20     -0.865633426730E+01
     -0.153955971241E-20     -0.546652106852E-22     -0.183961372213E+00
     -0.865633426730E+01     -0.183961372213E+00      0.000000000000E+00
     atom #   10    pol.  1
      0.233073719199E+04     -0.177255546186E+01      0.000000000000E+00
     -0.177255546186E+01      0.789341875603E+00      0.000000000000E+00
      0.000000000000E+00      0.000000000000E+00      0.107504798710E+00
     atom #   10    pol.  2
      0.136926368296E+04      0.874325719658E+02     -0.985318215943E-20
      0.874325719658E+02      0.475510330130E+01      0.000000000000E+00
     -0.985318215943E-20      0.000000000000E+00      0.312948835779E-01
     atom #   10    pol.  3
     -0.138749692003E-18     -0.123164776993E-20      0.865633426730E+01
     -0.123164776993E-20     -0.546652106852E-22     -0.183961372213E+00
      0.865633426730E+01     -0.183961372213E+00      0.000000000000E+00
     atom #   11    pol.  1
      0.235238846001E+04     -0.275361100742E+02      0.000000000000E+00
     -0.275361100742E+02      0.486160002829E+01      0.000000000000E+00
      0.000000000000E+00      0.000000000000E+00      0.830578916761E+00
     atom #   11    pol.  2
     -0.139986380035E+04      0.449628960256E+02      0.000000000000E+00
      0.449628960256E+02     -0.244988919956E+01     -0.109330421370E-21
      0.000000000000E+00     -0.109330421370E-21      0.115225537665E+00
     atom #   11    pol.  3
      0.000000000000E+00     -0.123164776993E-20      0.125125039334E+02
     -0.123164776993E-20      0.273326053426E-22      0.167039563182E+01
      0.125125039334E+02      0.167039563182E+01      0.000000000000E+00
     atom #   12    pol.  1
     -0.235238846001E+04     -0.275361100742E+02      0.000000000000E+00
     -0.275361100742E+02     -0.486160002829E+01      0.000000000000E+00
      0.000000000000E+00      0.000000000000E+00     -0.830578916761E+00
     atom #   12    pol.  2
     -0.139986380035E+04     -0.449628960256E+02      0.000000000000E+00
     -0.449628960256E+02     -0.244988919956E+01      0.109330421370E-21
      0.000000000000E+00      0.109330421370E-21      0.115225537665E+00
     atom #   12    pol.  3
     -0.277499384006E-19     -0.338703136730E-20     -0.125125039334E+02
     -0.338703136730E-20      0.000000000000E+00      0.167039563182E+01
     -0.125125039334E+02      0.167039563182E+01      0.000000000000E+00
     atom #   13    pol.  1
      0.408888389268E+02      0.483661299120E+00      0.000000000000E+00
      0.483661299120E+00      0.704624143907E+00      0.192444964051E-22
      0.000000000000E+00      0.192444964051E-22      0.258768276476E-01
     atom #   13    pol.  2
     -0.676075372141E+01      0.281052160573E+01      0.000000000000E+00
      0.281052160573E+01      0.328707859334E+01      0.136663026713E-22
      0.000000000000E+00      0.136663026713E-22      0.193255963525E+00
     atom #   13    pol.  3
      0.000000000000E+00     -0.769779856205E-22     -0.192608963659E+01
     -0.769779856205E-22     -0.683315133565E-23      0.103944090539E+00
     -0.192608963659E+01      0.103944090539E+00     -0.960911906576E-24
     atom #   14    pol.  1
     -0.408888389268E+02      0.483661299120E+00      0.000000000000E+00
      0.483661299120E+00     -0.704624143907E+00      0.962224820256E-23
      0.000000000000E+00      0.962224820256E-23     -0.258768276476E-01
     atom #   14    pol.  2
     -0.676075372141E+01     -0.281052160573E+01      0.000000000000E+00
     -0.281052160573E+01      0.328707859334E+01      0.136663026713E-22
      0.000000000000E+00      0.136663026713E-22      0.193255963525E+00
     atom #   14    pol.  3
     -0.277499384006E-19      0.153955971241E-21      0.192608963659E+01
      0.153955971241E-21     -0.102497270035E-22      0.103944090539E+00
      0.192608963659E+01      0.103944090539E+00      0.000000000000E+00


     Representation #  1 mode #   1

     Self-consistent Calculation

      iter #   1 total cpu time :   960.7 secs   av.it.:   5.0
      thresh= 1.000E-02 alpha_mix =  0.700 |ddv_scf|^2 =  2.243E-07

      iter #   2 total cpu time :   966.3 secs   av.it.:  11.0
      thresh= 4.736E-05 alpha_mix =  0.700 |ddv_scf|^2 =  1.737E-07

      iter #   3 total cpu time :   971.1 secs   av.it.:  10.0
      thresh= 4.168E-05 alpha_mix =  0.700 |ddv_scf|^2 =  1.504E-08

      iter #   4 total cpu time :   975.6 secs   av.it.:   9.5
      thresh= 1.227E-05 alpha_mix =  0.700 |ddv_scf|^2 =  6.676E-10

      iter #   5 total cpu time :   980.3 secs   av.it.:  10.0
      thresh= 2.584E-06 alpha_mix =  0.700 |ddv_scf|^2 =  1.399E-11

      iter #   6 total cpu time :   984.7 secs   av.it.:  10.0
      thresh= 3.741E-07 alpha_mix =  0.700 |ddv_scf|^2 =  2.926E-13

      iter #   7 total cpu time :   989.2 secs   av.it.:  10.5
      thresh= 5.409E-08 alpha_mix =  0.700 |ddv_scf|^2 =  1.574E-13

      iter #   8 total cpu time :   993.6 secs   av.it.:  10.0
      thresh= 3.968E-08 alpha_mix =  0.700 |ddv_scf|^2 =  8.550E-15

     End of self-consistent calculation

     Convergence has been achieved 


     Representation #  2 mode #   2

     Self-consistent Calculation

      iter #   1 total cpu time :   997.2 secs   av.it.:   4.0
      thresh= 1.000E-02 alpha_mix =  0.700 |ddv_scf|^2 =  1.340E-08

      iter #   2 total cpu time :  1001.7 secs   av.it.:  11.0
      thresh= 1.158E-05 alpha_mix =  0.700 |ddv_scf|^2 =  1.355E-08

      iter #   3 total cpu time :  1005.6 secs   av.it.:  10.0
      thresh= 1.164E-05 alpha_mix =  0.700 |ddv_scf|^2 =  2.026E-09

      iter #   4 total cpu time :  1009.2 secs   av.it.:   9.5
      thresh= 4.501E-06 alpha_mix =  0.700 |ddv_scf|^2 =  3.424E-11

      iter #   5 total cpu time :  1013.3 secs   av.it.:  10.0
      thresh= 5.851E-07 alpha_mix =  0.700 |ddv_scf|^2 =  4.362E-12

      iter #   6 total cpu time :  1017.2 secs   av.it.:  10.5
      thresh= 2.088E-07 alpha_mix =  0.700 |ddv_scf|^2 =  4.014E-13

      iter #   7 total cpu time :  1021.0 secs   av.it.:  10.0
      thresh= 6.335E-08 alpha_mix =  0.700 |ddv_scf|^2 =  1.496E-14

      iter #   8 total cpu time :  1024.8 secs   av.it.:  10.5
      thresh= 1.223E-08 alpha_mix =  0.700 |ddv_scf|^2 =  2.672E-15

     End of self-consistent calculation

     Convergence has been achieved 


     Representation #  3 mode #   3

     Self-consistent Calculation

      iter #   1 total cpu time :  1028.1 secs   av.it.:   6.0
      thresh= 1.000E-02 alpha_mix =  0.700 |ddv_scf|^2 =  1.990E-06

      iter #   2 total cpu time :  1032.2 secs   av.it.:  10.5
      thresh= 1.411E-04 alpha_mix =  0.700 |ddv_scf|^2 =  4.740E-06

      iter #   3 total cpu time :  1036.1 secs   av.it.:   9.5
      thresh= 2.177E-04 alpha_mix =  0.700 |ddv_scf|^2 =  2.268E-09

      iter #   4 total cpu time :  1040.3 secs   av.it.:  11.0
      thresh= 4.762E-06 alpha_mix =  0.700 |ddv_scf|^2 =  8.033E-11

      iter #   5 total cpu time :  1044.5 secs   av.it.:  10.0
      thresh= 8.963E-07 alpha_mix =  0.700 |ddv_scf|^2 =  1.502E-11

      iter #   6 total cpu time :  1048.8 secs   av.it.:  10.5
      thresh= 3.876E-07 alpha_mix =  0.700 |ddv_scf|^2 =  1.821E-12

      iter #   7 total cpu time :  1053.2 secs   av.it.:  10.5
      thresh= 1.349E-07 alpha_mix =  0.700 |ddv_scf|^2 =  4.062E-13

      iter #   8 total cpu time :  1057.3 secs   av.it.:  10.0
      thresh= 6.373E-08 alpha_mix =  0.700 |ddv_scf|^2 =  1.174E-15

     End of self-consistent calculation

     Convergence has been achieved 


     Representation #  4 mode #   4

     Self-consistent Calculation

      iter #   1 total cpu time :  1060.9 secs   av.it.:   5.5
      thresh= 1.000E-02 alpha_mix =  0.700 |ddv_scf|^2 =  9.561E-07

      iter #   2 total cpu time :  1065.3 secs   av.it.:  10.5
      thresh= 9.778E-05 alpha_mix =  0.700 |ddv_scf|^2 =  1.412E-06

      iter #   3 total cpu time :  1069.5 secs   av.it.:   9.5
      thresh= 1.188E-04 alpha_mix =  0.700 |ddv_scf|^2 =  1.427E-08

      iter #   4 total cpu time :  1073.7 secs   av.it.:  10.0
      thresh= 1.195E-05 alpha_mix =  0.700 |ddv_scf|^2 =  8.651E-10

      iter #   5 total cpu time :  1078.0 secs   av.it.:  10.0
      thresh= 2.941E-06 alpha_mix =  0.700 |ddv_scf|^2 =  1.601E-11

      iter #   6 total cpu time :  1082.4 secs   av.it.:  10.5
      thresh= 4.001E-07 alpha_mix =  0.700 |ddv_scf|^2 =  1.224E-12

      iter #   7 total cpu time :  1087.0 secs   av.it.:  10.0
      thresh= 1.107E-07 alpha_mix =  0.700 |ddv_scf|^2 =  2.838E-13

      iter #   8 total cpu time :  1091.3 secs   av.it.:  10.0
      thresh= 5.327E-08 alpha_mix =  0.700 |ddv_scf|^2 =  1.253E-14

      iter #   9 total cpu time :  1095.7 secs   av.it.:  10.0
      thresh= 1.119E-08 alpha_mix =  0.700 |ddv_scf|^2 =  1.952E-15

     End of self-consistent calculation

     Convergence has been achieved 


     Representation #  5 mode #   5

     Self-consistent Calculation

      iter #   1 total cpu time :  1099.6 secs   av.it.:   5.5
      thresh= 1.000E-02 alpha_mix =  0.700 |ddv_scf|^2 =  1.098E-06

      iter #   2 total cpu time :  1103.8 secs   av.it.:  10.0
      thresh= 1.048E-04 alpha_mix =  0.700 |ddv_scf|^2 =  1.086E-06

      iter #   3 total cpu time :  1107.7 secs   av.it.:   9.0
      thresh= 1.042E-04 alpha_mix =  0.700 |ddv_scf|^2 =  2.232E-08

      iter #   4 total cpu time :  1111.7 secs   av.it.:  10.0
      thresh= 1.494E-05 alpha_mix =  0.700 |ddv_scf|^2 =  7.018E-10

      iter #   5 total cpu time :  1115.7 secs   av.it.:   9.5
      thresh= 2.649E-06 alpha_mix =  0.700 |ddv_scf|^2 =  3.455E-12

      iter #   6 total cpu time :  1119.7 secs   av.it.:  11.0
      thresh= 1.859E-07 alpha_mix =  0.700 |ddv_scf|^2 =  1.500E-12

      iter #   7 total cpu time :  1123.9 secs   av.it.:  10.5
      thresh= 1.225E-07 alpha_mix =  0.700 |ddv_scf|^2 =  1.934E-13

      iter #   8 total cpu time :  1127.9 secs   av.it.:  10.0
      thresh= 4.398E-08 alpha_mix =  0.700 |ddv_scf|^2 =  3.695E-15

     End of self-consistent calculation

     Convergence has been achieved 


     Representation #  6 mode #   6

     Self-consistent Calculation

      iter #   1 total cpu time :  1130.8 secs   av.it.:   4.0
      thresh= 1.000E-02 alpha_mix =  0.700 |ddv_scf|^2 =  3.947E-08

      iter #   2 total cpu time :  1134.8 secs   av.it.:  10.0
      thresh= 1.987E-05 alpha_mix =  0.700 |ddv_scf|^2 =  5.639E-09

      iter #   3 total cpu time :  1139.0 secs   av.it.:  10.0
      thresh= 7.509E-06 alpha_mix =  0.700 |ddv_scf|^2 =  5.325E-10

      iter #   4 total cpu time :  1142.7 secs   av.it.:  10.0
      thresh= 2.308E-06 alpha_mix =  0.700 |ddv_scf|^2 =  1.371E-10

      iter #   5 total cpu time :  1146.5 secs   av.it.:   9.5
      thresh= 1.171E-06 alpha_mix =  0.700 |ddv_scf|^2 =  5.584E-13

      iter #   6 total cpu time :  1150.6 secs   av.it.:  11.0
      thresh= 7.473E-08 alpha_mix =  0.700 |ddv_scf|^2 =  2.001E-13

      iter #   7 total cpu time :  1154.4 secs   av.it.:  10.0
      thresh= 4.474E-08 alpha_mix =  0.700 |ddv_scf|^2 =  2.226E-14

      iter #   8 total cpu time :  1158.6 secs   av.it.:  10.0
      thresh= 1.492E-08 alpha_mix =  0.700 |ddv_scf|^2 =  5.836E-16

     End of self-consistent calculation

     Convergence has been achieved 


     Representation #  7 mode #   7

     Self-consistent Calculation

      iter #   1 total cpu time :  1162.0 secs   av.it.:   5.0
      thresh= 1.000E-02 alpha_mix =  0.700 |ddv_scf|^2 =  3.051E-07

      iter #   2 total cpu time :  1166.2 secs   av.it.:  11.0
      thresh= 5.523E-05 alpha_mix =  0.700 |ddv_scf|^2 =  3.058E-07

      iter #   3 total cpu time :  1170.2 secs   av.it.:  10.0
      thresh= 5.530E-05 alpha_mix =  0.700 |ddv_scf|^2 =  1.353E-08

      iter #   4 total cpu time :  1174.1 secs   av.it.:   9.5
      thresh= 1.163E-05 alpha_mix =  0.700 |ddv_scf|^2 =  8.545E-10

      iter #   5 total cpu time :  1178.1 secs   av.it.:  10.0
      thresh= 2.923E-06 alpha_mix =  0.700 |ddv_scf|^2 =  2.909E-11

      iter #   6 total cpu time :  1182.1 secs   av.it.:  10.0
      thresh= 5.393E-07 alpha_mix =  0.700 |ddv_scf|^2 =  2.905E-12

      iter #   7 total cpu time :  1186.2 secs   av.it.:  10.0
      thresh= 1.704E-07 alpha_mix =  0.700 |ddv_scf|^2 =  1.387E-13

      iter #   8 total cpu time :  1190.2 secs   av.it.:  10.0
      thresh= 3.724E-08 alpha_mix =  0.700 |ddv_scf|^2 =  2.934E-15

     End of self-consistent calculation

     Convergence has been achieved 


     Representation #  8 mode #   8

     Self-consistent Calculation

      iter #   1 total cpu time :  1193.7 secs   av.it.:   5.0
      thresh= 1.000E-02 alpha_mix =  0.700 |ddv_scf|^2 =  8.572E-08

      iter #   2 total cpu time :  1197.8 secs   av.it.:  11.0
      thresh= 2.928E-05 alpha_mix =  0.700 |ddv_scf|^2 =  9.777E-08

      iter #   3 total cpu time :  1201.6 secs   av.it.:  10.0
      thresh= 3.127E-05 alpha_mix =  0.700 |ddv_scf|^2 =  1.526E-09

      iter #   4 total cpu time :  1205.5 secs   av.it.:  10.0
      thresh= 3.906E-06 alpha_mix =  0.700 |ddv_scf|^2 =  7.833E-11

      iter #   5 total cpu time :  1209.6 secs   av.it.:  11.0
      thresh= 8.850E-07 alpha_mix =  0.700 |ddv_scf|^2 =  3.495E-12

      iter #   6 total cpu time :  1213.7 secs   av.it.:  10.0
      thresh= 1.869E-07 alpha_mix =  0.700 |ddv_scf|^2 =  4.738E-15

     End of self-consistent calculation

     Convergence has been achieved 


     Representation #  9 mode #   9

     Self-consistent Calculation

      iter #   1 total cpu time :  1216.6 secs   av.it.:   4.0
      thresh= 1.000E-02 alpha_mix =  0.700 |ddv_scf|^2 =  6.603E-09

      iter #   2 total cpu time :  1220.9 secs   av.it.:  11.0
      thresh= 8.126E-06 alpha_mix =  0.700 |ddv_scf|^2 =  1.049E-08

      iter #   3 total cpu time :  1224.9 secs   av.it.:  10.0
      thresh= 1.024E-05 alpha_mix =  0.700 |ddv_scf|^2 =  1.731E-11

      iter #   4 total cpu time :  1229.2 secs   av.it.:  11.0
      thresh= 4.161E-07 alpha_mix =  0.700 |ddv_scf|^2 =  5.257E-12

      iter #   5 total cpu time :  1233.4 secs   av.it.:  11.0
      thresh= 2.293E-07 alpha_mix =  0.700 |ddv_scf|^2 =  8.553E-14

      iter #   6 total cpu time :  1237.7 secs   av.it.:  10.5
      thresh= 2.925E-08 alpha_mix =  0.700 |ddv_scf|^2 =  7.139E-16

     End of self-consistent calculation

     Convergence has been achieved 


     Representation # 10 mode #  10

     Self-consistent Calculation

      iter #   1 total cpu time :  1241.3 secs   av.it.:   5.0
      thresh= 1.000E-02 alpha_mix =  0.700 |ddv_scf|^2 =  7.351E-08

      iter #   2 total cpu time :  1245.6 secs   av.it.:  11.0
      thresh= 2.711E-05 alpha_mix =  0.700 |ddv_scf|^2 =  5.582E-08

      iter #   3 total cpu time :  1250.2 secs   av.it.:  10.0
      thresh= 2.363E-05 alpha_mix =  0.700 |ddv_scf|^2 =  1.534E-09

      iter #   4 total cpu time :  1254.6 secs   av.it.:  10.5
      thresh= 3.917E-06 alpha_mix =  0.700 |ddv_scf|^2 =  1.492E-10

      iter #   5 total cpu time :  1259.1 secs   av.it.:  10.5
      thresh= 1.221E-06 alpha_mix =  0.700 |ddv_scf|^2 =  1.806E-12

      iter #   6 total cpu time :  1263.3 secs   av.it.:  10.0
      thresh= 1.344E-07 alpha_mix =  0.700 |ddv_scf|^2 =  1.206E-14

      iter #   7 total cpu time :  1267.9 secs   av.it.:  10.5
      thresh= 1.098E-08 alpha_mix =  0.700 |ddv_scf|^2 =  3.106E-17

     End of self-consistent calculation

     Convergence has been achieved 


     Representation # 11 mode #  11

     Self-consistent Calculation

      iter #   1 total cpu time :  1271.7 secs   av.it.:   5.0
      thresh= 1.000E-02 alpha_mix =  0.700 |ddv_scf|^2 =  4.140E-08

      iter #   2 total cpu time :  1276.4 secs   av.it.:  11.0
      thresh= 2.035E-05 alpha_mix =  0.700 |ddv_scf|^2 =  4.350E-08

      iter #   3 total cpu time :  1280.8 secs   av.it.:  10.0
      thresh= 2.086E-05 alpha_mix =  0.700 |ddv_scf|^2 =  1.018E-09

      iter #   4 total cpu time :  1285.0 secs   av.it.:  10.0
      thresh= 3.190E-06 alpha_mix =  0.700 |ddv_scf|^2 =  6.982E-11

      iter #   5 total cpu time :  1289.5 secs   av.it.:  11.0
      thresh= 8.356E-07 alpha_mix =  0.700 |ddv_scf|^2 =  1.933E-12

      iter #   6 total cpu time :  1293.7 secs   av.it.:  10.0
      thresh= 1.390E-07 alpha_mix =  0.700 |ddv_scf|^2 =  1.118E-14

      iter #   7 total cpu time :  1298.0 secs   av.it.:  10.5
      thresh= 1.057E-08 alpha_mix =  0.700 |ddv_scf|^2 =  6.045E-17

     End of self-consistent calculation

     Convergence has been achieved 


     Representation # 12 mode #  12

     Self-consistent Calculation

      iter #   1 total cpu time :  1301.9 secs   av.it.:   5.0
      thresh= 1.000E-02 alpha_mix =  0.700 |ddv_scf|^2 =  9.050E-08

      iter #   2 total cpu time :  1306.4 secs   av.it.:  11.0
      thresh= 3.008E-05 alpha_mix =  0.700 |ddv_scf|^2 =  1.164E-07

      iter #   3 total cpu time :  1311.1 secs   av.it.:  10.0
      thresh= 3.411E-05 alpha_mix =  0.700 |ddv_scf|^2 =  7.163E-10

      iter #   4 total cpu time :  1316.1 secs   av.it.:  10.5
      thresh= 2.676E-06 alpha_mix =  0.700 |ddv_scf|^2 =  9.232E-11

      iter #   5 total cpu time :  1321.0 secs   av.it.:  11.0
      thresh= 9.608E-07 alpha_mix =  0.700 |ddv_scf|^2 =  2.302E-12

      iter #   6 total cpu time :  1325.6 secs   av.it.:  10.5
      thresh= 1.517E-07 alpha_mix =  0.700 |ddv_scf|^2 =  3.840E-14

      iter #   7 total cpu time :  1330.5 secs   av.it.:  10.0
      thresh= 1.960E-08 alpha_mix =  0.700 |ddv_scf|^2 =  9.891E-17

     End of self-consistent calculation

     Convergence has been achieved 


     Representation # 13 mode #  13

     Self-consistent Calculation

      iter #   1 total cpu time :  1334.8 secs   av.it.:   5.0
      thresh= 1.000E-02 alpha_mix =  0.700 |ddv_scf|^2 =  9.783E-08

      iter #   2 total cpu time :  1339.7 secs   av.it.:  11.0
      thresh= 3.128E-05 alpha_mix =  0.700 |ddv_scf|^2 =  1.201E-07

      iter #   3 total cpu time :  1344.2 secs   av.it.:  10.0
      thresh= 3.465E-05 alpha_mix =  0.700 |ddv_scf|^2 =  9.672E-10

      iter #   4 total cpu time :  1348.5 secs   av.it.:  10.5
      thresh= 3.110E-06 alpha_mix =  0.700 |ddv_scf|^2 =  6.660E-11

      iter #   5 total cpu time :  1353.4 secs   av.it.:  11.0
      thresh= 8.161E-07 alpha_mix =  0.700 |ddv_scf|^2 =  1.496E-12

      iter #   6 total cpu time :  1358.4 secs   av.it.:  11.0
      thresh= 1.223E-07 alpha_mix =  0.700 |ddv_scf|^2 =  3.983E-14

      iter #   7 total cpu time :  1362.4 secs   av.it.:  10.0
      thresh= 1.996E-08 alpha_mix =  0.700 |ddv_scf|^2 =  4.276E-17

     End of self-consistent calculation

     Convergence has been achieved 


     Representation # 14 mode #  14

     Self-consistent Calculation

      iter #   1 total cpu time :  1365.3 secs   av.it.:   4.0
      thresh= 1.000E-02 alpha_mix =  0.700 |ddv_scf|^2 =  7.613E-09

      iter #   2 total cpu time :  1369.7 secs   av.it.:  11.0
      thresh= 8.725E-06 alpha_mix =  0.700 |ddv_scf|^2 =  1.130E-08

      iter #   3 total cpu time :  1374.1 secs   av.it.:  10.0
      thresh= 1.063E-05 alpha_mix =  0.700 |ddv_scf|^2 =  3.976E-11

      iter #   4 total cpu time :  1378.4 secs   av.it.:  11.0
      thresh= 6.306E-07 alpha_mix =  0.700 |ddv_scf|^2 =  7.531E-12

      iter #   5 total cpu time :  1382.8 secs   av.it.:  11.0
      thresh= 2.744E-07 alpha_mix =  0.700 |ddv_scf|^2 =  1.453E-13

      iter #   6 total cpu time :  1387.0 secs   av.it.:  10.5
      thresh= 3.812E-08 alpha_mix =  0.700 |ddv_scf|^2 =  2.186E-15

     End of self-consistent calculation

     Convergence has been achieved 


     Representation # 15 mode #  15

     Self-consistent Calculation

      iter #   1 total cpu time :  1390.4 secs   av.it.:   5.0
      thresh= 1.000E-02 alpha_mix =  0.700 |ddv_scf|^2 =  1.756E-08

      iter #   2 total cpu time :  1394.9 secs   av.it.:  11.0
      thresh= 1.325E-05 alpha_mix =  0.700 |ddv_scf|^2 =  2.758E-10

      iter #   3 total cpu time :  1399.3 secs   av.it.:  10.5
      thresh= 1.661E-06 alpha_mix =  0.700 |ddv_scf|^2 =  1.711E-11

      iter #   4 total cpu time :  1403.5 secs   av.it.:  10.0
      thresh= 4.137E-07 alpha_mix =  0.700 |ddv_scf|^2 =  2.491E-13

      iter #   5 total cpu time :  1407.8 secs   av.it.:  10.0
      thresh= 4.991E-08 alpha_mix =  0.700 |ddv_scf|^2 =  8.685E-16

     End of self-consistent calculation

     Convergence has been achieved 


     Representation # 16 mode #  16

     Self-consistent Calculation

      iter #   1 total cpu time :  1410.9 secs   av.it.:   3.5
      thresh= 1.000E-02 alpha_mix =  0.700 |ddv_scf|^2 =  9.640E-10

      iter #   2 total cpu time :  1414.8 secs   av.it.:  11.0
      thresh= 3.105E-06 alpha_mix =  0.700 |ddv_scf|^2 =  1.889E-11

      iter #   3 total cpu time :  1418.8 secs   av.it.:  11.0
      thresh= 4.347E-07 alpha_mix =  0.700 |ddv_scf|^2 =  1.160E-12

      iter #   4 total cpu time :  1422.8 secs   av.it.:  11.0
      thresh= 1.077E-07 alpha_mix =  0.700 |ddv_scf|^2 =  1.889E-14

      iter #   5 total cpu time :  1426.7 secs   av.it.:  10.0
      thresh= 1.374E-08 alpha_mix =  0.700 |ddv_scf|^2 =  4.551E-16

     End of self-consistent calculation

     Convergence has been achieved 


     Representation # 17 mode #  17

     Self-consistent Calculation

      iter #   1 total cpu time :  1429.7 secs   av.it.:   5.0
      thresh= 1.000E-02 alpha_mix =  0.700 |ddv_scf|^2 =  2.342E-08

      iter #   2 total cpu time :  1434.0 secs   av.it.:  11.0
      thresh= 1.530E-05 alpha_mix =  0.700 |ddv_scf|^2 =  4.241E-10

      iter #   3 total cpu time :  1438.6 secs   av.it.:  11.0
      thresh= 2.059E-06 alpha_mix =  0.700 |ddv_scf|^2 =  1.686E-11

      iter #   4 total cpu time :  1442.9 secs   av.it.:  10.0
      thresh= 4.107E-07 alpha_mix =  0.700 |ddv_scf|^2 =  1.204E-13

      iter #   5 total cpu time :  1447.4 secs   av.it.:  10.0
      thresh= 3.470E-08 alpha_mix =  0.700 |ddv_scf|^2 =  5.303E-16

     End of self-consistent calculation

     Convergence has been achieved 


     Representation # 18 mode #  18

     Self-consistent Calculation

      iter #   1 total cpu time :  1450.9 secs   av.it.:   5.0
      thresh= 1.000E-02 alpha_mix =  0.700 |ddv_scf|^2 =  2.007E-08

      iter #   2 total cpu time :  1455.5 secs   av.it.:  11.0
      thresh= 1.417E-05 alpha_mix =  0.700 |ddv_scf|^2 =  3.018E-10

      iter #   3 total cpu time :  1460.1 secs   av.it.:  11.0
      thresh= 1.737E-06 alpha_mix =  0.700 |ddv_scf|^2 =  1.586E-11

      iter #   4 total cpu time :  1464.2 secs   av.it.:  10.0
      thresh= 3.982E-07 alpha_mix =  0.700 |ddv_scf|^2 =  2.962E-13

      iter #   5 total cpu time :  1467.9 secs   av.it.:  10.0
      thresh= 5.442E-08 alpha_mix =  0.700 |ddv_scf|^2 =  6.945E-16

     End of self-consistent calculation

     Convergence has been achieved 


     Representation # 19 mode #  19

     Self-consistent Calculation

      iter #   1 total cpu time :  1471.1 secs   av.it.:   5.0
      thresh= 1.000E-02 alpha_mix =  0.700 |ddv_scf|^2 =  1.928E-07

      iter #   2 total cpu time :  1475.0 secs   av.it.:  11.0
      thresh= 4.391E-05 alpha_mix =  0.700 |ddv_scf|^2 =  3.444E-08

      iter #   3 total cpu time :  1478.7 secs   av.it.:  10.0
      thresh= 1.856E-05 alpha_mix =  0.700 |ddv_scf|^2 =  4.778E-11

      iter #   4 total cpu time :  1482.5 secs   av.it.:  10.0
      thresh= 6.912E-07 alpha_mix =  0.700 |ddv_scf|^2 =  3.855E-12

      iter #   5 total cpu time :  1486.1 secs   av.it.:  10.0
      thresh= 1.963E-07 alpha_mix =  0.700 |ddv_scf|^2 =  3.013E-15

     End of self-consistent calculation

     Convergence has been achieved 


     Representation # 20 mode #  20

     Self-consistent Calculation

      iter #   1 total cpu time :  1488.9 secs   av.it.:   4.0
      thresh= 1.000E-02 alpha_mix =  0.700 |ddv_scf|^2 =  1.138E-08

      iter #   2 total cpu time :  1492.7 secs   av.it.:  10.5
      thresh= 1.067E-05 alpha_mix =  0.700 |ddv_scf|^2 =  1.281E-09

      iter #   3 total cpu time :  1496.3 secs   av.it.:  10.0
      thresh= 3.580E-06 alpha_mix =  0.700 |ddv_scf|^2 =  1.720E-11

      iter #   4 total cpu time :  1500.9 secs   av.it.:  10.0
      thresh= 4.147E-07 alpha_mix =  0.700 |ddv_scf|^2 =  2.752E-13

      iter #   5 total cpu time :  1505.4 secs   av.it.:  10.0
      thresh= 5.246E-08 alpha_mix =  0.700 |ddv_scf|^2 =  9.063E-15

     End of self-consistent calculation

     Convergence has been achieved 


     Representation # 21 mode #  21

     Self-consistent Calculation

      iter #   1 total cpu time :  1509.2 secs   av.it.:   6.0
      thresh= 1.000E-02 alpha_mix =  0.700 |ddv_scf|^2 =  3.150E-07

      iter #   2 total cpu time :  1513.6 secs   av.it.:  11.0
      thresh= 5.612E-05 alpha_mix =  0.700 |ddv_scf|^2 =  5.566E-08

      iter #   3 total cpu time :  1517.9 secs   av.it.:  10.0
      thresh= 2.359E-05 alpha_mix =  0.700 |ddv_scf|^2 =  4.547E-11

      iter #   4 total cpu time :  1522.3 secs   av.it.:  10.0
      thresh= 6.743E-07 alpha_mix =  0.700 |ddv_scf|^2 =  3.815E-12

      iter #   5 total cpu time :  1526.6 secs   av.it.:  10.0
      thresh= 1.953E-07 alpha_mix =  0.700 |ddv_scf|^2 =  2.240E-14

      iter #   6 total cpu time :  1531.0 secs   av.it.:  10.0
      thresh= 1.497E-08 alpha_mix =  0.700 |ddv_scf|^2 =  1.260E-16

     End of self-consistent calculation

     Convergence has been achieved 


     Representation # 22 mode #  22

     Self-consistent Calculation

      iter #   1 total cpu time :  1534.0 secs   av.it.:   3.5
      thresh= 1.000E-02 alpha_mix =  0.700 |ddv_scf|^2 =  9.556E-10

      iter #   2 total cpu time :  1538.5 secs   av.it.:  11.0
      thresh= 3.091E-06 alpha_mix =  0.700 |ddv_scf|^2 =  1.845E-11

      iter #   3 total cpu time :  1543.0 secs   av.it.:  11.0
      thresh= 4.296E-07 alpha_mix =  0.700 |ddv_scf|^2 =  1.074E-12

      iter #   4 total cpu time :  1547.5 secs   av.it.:  10.5
      thresh= 1.036E-07 alpha_mix =  0.700 |ddv_scf|^2 =  1.416E-14

      iter #   5 total cpu time :  1552.0 secs   av.it.:  10.0
      thresh= 1.190E-08 alpha_mix =  0.700 |ddv_scf|^2 =  2.468E-16

     End of self-consistent calculation

     Convergence has been achieved 


     Representation # 23 mode #  23

     Self-consistent Calculation

      iter #   1 total cpu time :  1555.4 secs   av.it.:   5.0
      thresh= 1.000E-02 alpha_mix =  0.700 |ddv_scf|^2 =  1.602E-08

      iter #   2 total cpu time :  1560.0 secs   av.it.:  11.0
      thresh= 1.266E-05 alpha_mix =  0.700 |ddv_scf|^2 =  2.062E-10

      iter #   3 total cpu time :  1564.5 secs   av.it.:  10.5
      thresh= 1.436E-06 alpha_mix =  0.700 |ddv_scf|^2 =  1.440E-11

      iter #   4 total cpu time :  1568.7 secs   av.it.:   9.5
      thresh= 3.795E-07 alpha_mix =  0.700 |ddv_scf|^2 =  1.421E-13

      iter #   5 total cpu time :  1572.8 secs   av.it.:  10.0
      thresh= 3.769E-08 alpha_mix =  0.700 |ddv_scf|^2 =  4.885E-16

     End of self-consistent calculation

     Convergence has been achieved 


     Representation # 24 mode #  24

     Self-consistent Calculation

      iter #   1 total cpu time :  1576.3 secs   av.it.:   5.0
      thresh= 1.000E-02 alpha_mix =  0.700 |ddv_scf|^2 =  1.742E-08

      iter #   2 total cpu time :  1580.9 secs   av.it.:  11.0
      thresh= 1.320E-05 alpha_mix =  0.700 |ddv_scf|^2 =  2.439E-10

      iter #   3 total cpu time :  1585.5 secs   av.it.:  10.5
      thresh= 1.562E-06 alpha_mix =  0.700 |ddv_scf|^2 =  1.629E-11

      iter #   4 total cpu time :  1589.7 secs   av.it.:  10.0
      thresh= 4.036E-07 alpha_mix =  0.700 |ddv_scf|^2 =  5.865E-14

      iter #   5 total cpu time :  1593.9 secs   av.it.:  10.0
      thresh= 2.422E-08 alpha_mix =  0.700 |ddv_scf|^2 =  6.147E-16

     End of self-consistent calculation

     Convergence has been achieved 


     Representation # 25 mode #  25

     Self-consistent Calculation

      iter #   1 total cpu time :  1597.5 secs   av.it.:   6.0
      thresh= 1.000E-02 alpha_mix =  0.700 |ddv_scf|^2 =  5.116E-07

      iter #   2 total cpu time :  1602.1 secs   av.it.:  10.5
      thresh= 7.152E-05 alpha_mix =  0.700 |ddv_scf|^2 =  1.943E-07

      iter #   3 total cpu time :  1606.5 secs   av.it.:  10.0
      thresh= 4.408E-05 alpha_mix =  0.700 |ddv_scf|^2 =  4.126E-10

      iter #   4 total cpu time :  1611.1 secs   av.it.:  10.5
      thresh= 2.031E-06 alpha_mix =  0.700 |ddv_scf|^2 =  1.212E-11

      iter #   5 total cpu time :  1615.6 secs   av.it.:  10.0
      thresh= 3.481E-07 alpha_mix =  0.700 |ddv_scf|^2 =  9.794E-14

      iter #   6 total cpu time :  1620.0 secs   av.it.:  10.0
      thresh= 3.130E-08 alpha_mix =  0.700 |ddv_scf|^2 =  5.119E-15

     End of self-consistent calculation

     Convergence has been achieved 


     Representation # 26 mode #  26

     Self-consistent Calculation

      iter #   1 total cpu time :  1623.3 secs   av.it.:   4.0
      thresh= 1.000E-02 alpha_mix =  0.700 |ddv_scf|^2 =  1.658E-08

      iter #   2 total cpu time :  1627.8 secs   av.it.:  10.5
      thresh= 1.288E-05 alpha_mix =  0.700 |ddv_scf|^2 =  4.014E-09

      iter #   3 total cpu time :  1632.3 secs   av.it.:  10.0
      thresh= 6.336E-06 alpha_mix =  0.700 |ddv_scf|^2 =  7.727E-11

      iter #   4 total cpu time :  1636.8 secs   av.it.:  10.0
      thresh= 8.791E-07 alpha_mix =  0.700 |ddv_scf|^2 =  1.283E-12

      iter #   5 total cpu time :  1641.5 secs   av.it.:  10.5
      thresh= 1.133E-07 alpha_mix =  0.700 |ddv_scf|^2 =  3.498E-14

      iter #   6 total cpu time :  1646.2 secs   av.it.:  10.0
      thresh= 1.870E-08 alpha_mix =  0.700 |ddv_scf|^2 =  3.165E-16

     End of self-consistent calculation

     Convergence has been achieved 


     Representation # 27 mode #  27

     Self-consistent Calculation

      iter #   1 total cpu time :  1650.1 secs   av.it.:   6.0
      thresh= 1.000E-02 alpha_mix =  0.700 |ddv_scf|^2 =  7.313E-07

      iter #   2 total cpu time :  1654.7 secs   av.it.:  10.5
      thresh= 8.551E-05 alpha_mix =  0.700 |ddv_scf|^2 =  3.338E-07

      iter #   3 total cpu time :  1659.1 secs   av.it.:  10.0
      thresh= 5.778E-05 alpha_mix =  0.700 |ddv_scf|^2 =  7.594E-11

      iter #   4 total cpu time :  1663.6 secs   av.it.:  10.0
      thresh= 8.714E-07 alpha_mix =  0.700 |ddv_scf|^2 =  5.918E-12

      iter #   5 total cpu time :  1668.1 secs   av.it.:  10.0
      thresh= 2.433E-07 alpha_mix =  0.700 |ddv_scf|^2 =  1.159E-13

      iter #   6 total cpu time :  1672.7 secs   av.it.:  10.5
      thresh= 3.405E-08 alpha_mix =  0.700 |ddv_scf|^2 =  5.302E-15

     End of self-consistent calculation

     Convergence has been achieved 


     Representation # 28 mode #  28

     Self-consistent Calculation

      iter #   1 total cpu time :  1676.5 secs   av.it.:   5.5
      thresh= 1.000E-02 alpha_mix =  0.700 |ddv_scf|^2 =  4.659E-07

      iter #   2 total cpu time :  1681.1 secs   av.it.:  10.5
      thresh= 6.826E-05 alpha_mix =  0.700 |ddv_scf|^2 =  1.949E-07

      iter #   3 total cpu time :  1685.6 secs   av.it.:  10.0
      thresh= 4.415E-05 alpha_mix =  0.700 |ddv_scf|^2 =  2.236E-10

      iter #   4 total cpu time :  1690.4 secs   av.it.:  10.5
      thresh= 1.495E-06 alpha_mix =  0.700 |ddv_scf|^2 =  9.059E-12

      iter #   5 total cpu time :  1694.9 secs   av.it.:  10.0
      thresh= 3.010E-07 alpha_mix =  0.700 |ddv_scf|^2 =  1.462E-13

      iter #   6 total cpu time :  1699.5 secs   av.it.:  10.0
      thresh= 3.824E-08 alpha_mix =  0.700 |ddv_scf|^2 =  4.764E-15

     End of self-consistent calculation

     Convergence has been achieved 


     Representation # 29 mode #  29

     Self-consistent Calculation

      iter #   1 total cpu time :  1703.0 secs   av.it.:   4.0
      thresh= 1.000E-02 alpha_mix =  0.700 |ddv_scf|^2 =  5.546E-08

      iter #   2 total cpu time :  1707.7 secs   av.it.:  10.0
      thresh= 2.355E-05 alpha_mix =  0.700 |ddv_scf|^2 =  6.355E-07

      iter #   3 total cpu time :  1711.9 secs   av.it.:   8.0
      thresh= 7.972E-05 alpha_mix =  0.700 |ddv_scf|^2 =  2.373E-09

      iter #   4 total cpu time :  1716.6 secs   av.it.:  10.5
      thresh= 4.871E-06 alpha_mix =  0.700 |ddv_scf|^2 =  4.031E-09

      iter #   5 total cpu time :  1720.4 secs   av.it.:   9.0
      thresh= 6.349E-06 alpha_mix =  0.700 |ddv_scf|^2 =  2.341E-11

      iter #   6 total cpu time :  1725.1 secs   av.it.:   9.0
      thresh= 4.838E-07 alpha_mix =  0.700 |ddv_scf|^2 =  2.567E-13

      iter #   7 total cpu time :  1729.5 secs   av.it.:   9.5
      thresh= 5.067E-08 alpha_mix =  0.700 |ddv_scf|^2 =  2.495E-15

     End of self-consistent calculation

     Convergence has been achieved 


     Representation # 30 mode #  30

     Self-consistent Calculation

      iter #   1 total cpu time :  1732.9 secs   av.it.:   5.5
      thresh= 1.000E-02 alpha_mix =  0.700 |ddv_scf|^2 =  2.034E-06

      iter #   2 total cpu time :  1737.1 secs   av.it.:  10.0
      thresh= 1.426E-04 alpha_mix =  0.700 |ddv_scf|^2 =  1.779E-05

      iter #   3 total cpu time :  1740.7 secs   av.it.:   9.0
      thresh= 4.218E-04 alpha_mix =  0.700 |ddv_scf|^2 =  2.972E-07

      iter #   4 total cpu time :  1744.5 secs   av.it.:   9.5
      thresh= 5.451E-05 alpha_mix =  0.700 |ddv_scf|^2 =  1.608E-09

      iter #   5 total cpu time :  1748.5 secs   av.it.:  10.0
      thresh= 4.010E-06 alpha_mix =  0.700 |ddv_scf|^2 =  3.592E-11

      iter #   6 total cpu time :  1752.5 secs   av.it.:  10.0
      thresh= 5.994E-07 alpha_mix =  0.700 |ddv_scf|^2 =  7.791E-12

      iter #   7 total cpu time :  1756.2 secs   av.it.:  10.0
      thresh= 2.791E-07 alpha_mix =  0.700 |ddv_scf|^2 =  1.807E-12

      iter #   8 total cpu time :  1759.5 secs   av.it.:   9.0
      thresh= 1.344E-07 alpha_mix =  0.700 |ddv_scf|^2 =  2.279E-14

      iter #   9 total cpu time :  1762.8 secs   av.it.:   9.0
      thresh= 1.510E-08 alpha_mix =  0.700 |ddv_scf|^2 =  1.497E-16

     End of self-consistent calculation

     Convergence has been achieved 


     Representation # 31 mode #  31

     Self-consistent Calculation

      iter #   1 total cpu time :  1766.3 secs   av.it.:   6.0
      thresh= 1.000E-02 alpha_mix =  0.700 |ddv_scf|^2 =  5.995E-07

      iter #   2 total cpu time :  1770.2 secs   av.it.:  11.0
      thresh= 7.743E-05 alpha_mix =  0.700 |ddv_scf|^2 =  9.306E-06

      iter #   3 total cpu time :  1773.5 secs   av.it.:   8.0
      thresh= 3.051E-04 alpha_mix =  0.700 |ddv_scf|^2 =  2.476E-07

      iter #   4 total cpu time :  1777.1 secs   av.it.:  10.0
      thresh= 4.976E-05 alpha_mix =  0.700 |ddv_scf|^2 =  3.360E-09

      iter #   5 total cpu time :  1781.1 secs   av.it.:  10.0
      thresh= 5.797E-06 alpha_mix =  0.700 |ddv_scf|^2 =  1.381E-10

      iter #   6 total cpu time :  1785.1 secs   av.it.:   9.5
      thresh= 1.175E-06 alpha_mix =  0.700 |ddv_scf|^2 =  3.229E-12

      iter #   7 total cpu time :  1789.4 secs   av.it.:  10.0
      thresh= 1.797E-07 alpha_mix =  0.700 |ddv_scf|^2 =  1.855E-13

      iter #   8 total cpu time :  1793.7 secs   av.it.:  10.0
      thresh= 4.307E-08 alpha_mix =  0.700 |ddv_scf|^2 =  1.697E-14

      iter #   9 total cpu time :  1797.8 secs   av.it.:  10.0
      thresh= 1.303E-08 alpha_mix =  0.700 |ddv_scf|^2 =  7.476E-17

     End of self-consistent calculation

     Convergence has been achieved 


     Representation # 32 mode #  32

     Self-consistent Calculation

      iter #   1 total cpu time :  1801.5 secs   av.it.:   5.5
      thresh= 1.000E-02 alpha_mix =  0.700 |ddv_scf|^2 =  6.977E-06

      iter #   2 total cpu time :  1805.8 secs   av.it.:  10.0
      thresh= 2.641E-04 alpha_mix =  0.700 |ddv_scf|^2 =  9.672E-05

      iter #   3 total cpu time :  1809.5 secs   av.it.:   8.0
      thresh= 9.835E-04 alpha_mix =  0.700 |ddv_scf|^2 =  3.277E-08

      iter #   4 total cpu time :  1813.8 secs   av.it.:  10.0
      thresh= 1.810E-05 alpha_mix =  0.700 |ddv_scf|^2 =  1.033E-08

      iter #   5 total cpu time :  1817.9 secs   av.it.:   9.5
      thresh= 1.017E-05 alpha_mix =  0.700 |ddv_scf|^2 =  7.758E-11

      iter #   6 total cpu time :  1822.3 secs   av.it.:  10.0
      thresh= 8.808E-07 alpha_mix =  0.700 |ddv_scf|^2 =  8.047E-12

      iter #   7 total cpu time :  1826.5 secs   av.it.:  10.0
      thresh= 2.837E-07 alpha_mix =  0.700 |ddv_scf|^2 =  2.263E-12

      iter #   8 total cpu time :  1830.5 secs   av.it.:   9.0
      thresh= 1.504E-07 alpha_mix =  0.700 |ddv_scf|^2 =  2.537E-14

      iter #   9 total cpu time :  1834.4 secs   av.it.:   9.0
      thresh= 1.593E-08 alpha_mix =  0.700 |ddv_scf|^2 =  9.312E-17

     End of self-consistent calculation

     Convergence has been achieved 


     Representation # 33 mode #  33

     Self-consistent Calculation

      iter #   1 total cpu time :  1837.2 secs   av.it.:   4.0
      thresh= 1.000E-02 alpha_mix =  0.700 |ddv_scf|^2 =  1.441E-07

      iter #   2 total cpu time :  1841.0 secs   av.it.:  10.0
      thresh= 3.796E-05 alpha_mix =  0.700 |ddv_scf|^2 =  1.967E-06

      iter #   3 total cpu time :  1844.5 secs   av.it.:   8.0
      thresh= 1.402E-04 alpha_mix =  0.700 |ddv_scf|^2 =  2.836E-09

      iter #   4 total cpu time :  1848.7 secs   av.it.:  10.0
      thresh= 5.326E-06 alpha_mix =  0.700 |ddv_scf|^2 =  2.550E-09

      iter #   5 total cpu time :  1852.5 secs   av.it.:   9.0
      thresh= 5.050E-06 alpha_mix =  0.700 |ddv_scf|^2 =  5.064E-12

      iter #   6 total cpu time :  1856.5 secs   av.it.:   9.5
      thresh= 2.250E-07 alpha_mix =  0.700 |ddv_scf|^2 =  4.262E-13

      iter #   7 total cpu time :  1860.4 secs   av.it.:   9.5
      thresh= 6.529E-08 alpha_mix =  0.700 |ddv_scf|^2 =  9.186E-15

     End of self-consistent calculation

     Convergence has been achieved 


     Representation # 34 mode #  34

     Self-consistent Calculation

      iter #   1 total cpu time :  1864.0 secs   av.it.:   5.5
      thresh= 1.000E-02 alpha_mix =  0.700 |ddv_scf|^2 =  2.558E-07

      iter #   2 total cpu time :  1868.3 secs   av.it.:  11.0
      thresh= 5.058E-05 alpha_mix =  0.700 |ddv_scf|^2 =  2.104E-06

      iter #   3 total cpu time :  1871.9 secs   av.it.:   9.0
      thresh= 1.451E-04 alpha_mix =  0.700 |ddv_scf|^2 =  1.742E-08

      iter #   4 total cpu time :  1876.3 secs   av.it.:  11.0
      thresh= 1.320E-05 alpha_mix =  0.700 |ddv_scf|^2 =  1.102E-08

      iter #   5 total cpu time :  1880.2 secs   av.it.:   9.5
      thresh= 1.050E-05 alpha_mix =  0.700 |ddv_scf|^2 =  3.590E-10

      iter #   6 total cpu time :  1884.1 secs   av.it.:   9.0
      thresh= 1.895E-06 alpha_mix =  0.700 |ddv_scf|^2 =  8.330E-13

      iter #   7 total cpu time :  1888.7 secs   av.it.:  10.5
      thresh= 9.127E-08 alpha_mix =  0.700 |ddv_scf|^2 =  1.073E-12

      iter #   8 total cpu time :  1892.9 secs   av.it.:   9.0
      thresh= 1.036E-07 alpha_mix =  0.700 |ddv_scf|^2 =  3.369E-14

      iter #   9 total cpu time :  1897.2 secs   av.it.:  10.0
      thresh= 1.836E-08 alpha_mix =  0.700 |ddv_scf|^2 =  1.517E-15

     End of self-consistent calculation

     Convergence has been achieved 


     Representation # 35 mode #  35

     Self-consistent Calculation

      iter #   1 total cpu time :  1901.0 secs   av.it.:   5.5
      thresh= 1.000E-02 alpha_mix =  0.700 |ddv_scf|^2 =  2.481E-06

      iter #   2 total cpu time :  1905.5 secs   av.it.:  10.0
      thresh= 1.575E-04 alpha_mix =  0.700 |ddv_scf|^2 =  3.039E-05

      iter #   3 total cpu time :  1909.2 secs   av.it.:   8.0
      thresh= 5.512E-04 alpha_mix =  0.700 |ddv_scf|^2 =  2.066E-08

      iter #   4 total cpu time :  1913.8 secs   av.it.:  10.5
      thresh= 1.437E-05 alpha_mix =  0.700 |ddv_scf|^2 =  4.739E-10

      iter #   5 total cpu time :  1917.9 secs   av.it.:  11.0
      thresh= 2.177E-06 alpha_mix =  0.700 |ddv_scf|^2 =  4.925E-10

      iter #   6 total cpu time :  1921.6 secs   av.it.:   9.5
      thresh= 2.219E-06 alpha_mix =  0.700 |ddv_scf|^2 =  2.396E-11

      iter #   7 total cpu time :  1925.3 secs   av.it.:   9.0
      thresh= 4.895E-07 alpha_mix =  0.700 |ddv_scf|^2 =  2.075E-12

      iter #   8 total cpu time :  1929.0 secs   av.it.:   9.0
      thresh= 1.440E-07 alpha_mix =  0.700 |ddv_scf|^2 =  1.889E-14

      iter #   9 total cpu time :  1932.7 secs   av.it.:   9.0
      thresh= 1.374E-08 alpha_mix =  0.700 |ddv_scf|^2 =  3.361E-17

     End of self-consistent calculation

     Convergence has been achieved 


     Representation # 36 mode #  36

     Self-consistent Calculation

      iter #   1 total cpu time :  1936.0 secs   av.it.:   5.5
      thresh= 1.000E-02 alpha_mix =  0.700 |ddv_scf|^2 =  1.444E-07

      iter #   2 total cpu time :  1940.1 secs   av.it.:  11.0
      thresh= 3.800E-05 alpha_mix =  0.700 |ddv_scf|^2 =  2.215E-07

      iter #   3 total cpu time :  1943.9 secs   av.it.:  10.0
      thresh= 4.706E-05 alpha_mix =  0.700 |ddv_scf|^2 =  5.501E-10

      iter #   4 total cpu time :  1947.9 secs   av.it.:  10.5
      thresh= 2.345E-06 alpha_mix =  0.700 |ddv_scf|^2 =  9.077E-11

      iter #   5 total cpu time :  1952.1 secs   av.it.:  11.0
      thresh= 9.528E-07 alpha_mix =  0.700 |ddv_scf|^2 =  3.345E-12

      iter #   6 total cpu time :  1956.2 secs   av.it.:  11.0
      thresh= 1.829E-07 alpha_mix =  0.700 |ddv_scf|^2 =  1.538E-12

      iter #   7 total cpu time :  1960.0 secs   av.it.:  10.0
      thresh= 1.240E-07 alpha_mix =  0.700 |ddv_scf|^2 =  2.153E-14

      iter #   8 total cpu time :  1964.3 secs   av.it.:  10.5
      thresh= 1.467E-08 alpha_mix =  0.700 |ddv_scf|^2 =  1.126E-16

     End of self-consistent calculation

     Convergence has been achieved 


     Representation # 37 mode #  37

     Self-consistent Calculation

      iter #   1 total cpu time :  1967.7 secs   av.it.:   5.5
      thresh= 1.000E-02 alpha_mix =  0.700 |ddv_scf|^2 =  1.794E-07

      iter #   2 total cpu time :  1972.2 secs   av.it.:  11.0
      thresh= 4.235E-05 alpha_mix =  0.700 |ddv_scf|^2 =  3.422E-07

      iter #   3 total cpu time :  1976.5 secs   av.it.:  10.0
      thresh= 5.850E-05 alpha_mix =  0.700 |ddv_scf|^2 =  7.072E-10

      iter #   4 total cpu time :  1980.6 secs   av.it.:  11.0
      thresh= 2.659E-06 alpha_mix =  0.700 |ddv_scf|^2 =  3.271E-10

      iter #   5 total cpu time :  1984.5 secs   av.it.:  10.0
      thresh= 1.809E-06 alpha_mix =  0.700 |ddv_scf|^2 =  5.419E-12

      iter #   6 total cpu time :  1988.6 secs   av.it.:  11.0
      thresh= 2.328E-07 alpha_mix =  0.700 |ddv_scf|^2 =  1.452E-12

      iter #   7 total cpu time :  1992.6 secs   av.it.:  10.5
      thresh= 1.205E-07 alpha_mix =  0.700 |ddv_scf|^2 =  1.752E-14

      iter #   8 total cpu time :  1996.4 secs   av.it.:  10.0
      thresh= 1.324E-08 alpha_mix =  0.700 |ddv_scf|^2 =  4.330E-17

     End of self-consistent calculation

     Convergence has been achieved 


     Representation # 38 mode #  38

     Self-consistent Calculation

      iter #   1 total cpu time :  1999.6 secs   av.it.:   5.5
      thresh= 1.000E-02 alpha_mix =  0.700 |ddv_scf|^2 =  1.124E-07

      iter #   2 total cpu time :  2003.7 secs   av.it.:  11.0
      thresh= 3.353E-05 alpha_mix =  0.700 |ddv_scf|^2 =  1.320E-07

      iter #   3 total cpu time :  2007.5 secs   av.it.:  10.5
      thresh= 3.634E-05 alpha_mix =  0.700 |ddv_scf|^2 =  2.909E-09

      iter #   4 total cpu time :  2011.7 secs   av.it.:  10.5
      thresh= 5.394E-06 alpha_mix =  0.700 |ddv_scf|^2 =  2.711E-10

      iter #   5 total cpu time :  2015.8 secs   av.it.:  11.0
      thresh= 1.646E-06 alpha_mix =  0.700 |ddv_scf|^2 =  2.026E-11

      iter #   6 total cpu time :  2019.9 secs   av.it.:  10.5
      thresh= 4.501E-07 alpha_mix =  0.700 |ddv_scf|^2 =  2.163E-12

      iter #   7 total cpu time :  2023.9 secs   av.it.:  10.5
      thresh= 1.471E-07 alpha_mix =  0.700 |ddv_scf|^2 =  2.005E-14

      iter #   8 total cpu time :  2027.8 secs   av.it.:  10.5
      thresh= 1.416E-08 alpha_mix =  0.700 |ddv_scf|^2 =  3.961E-17

     End of self-consistent calculation

     Convergence has been achieved 


     Representation # 39 mode #  39

     Self-consistent Calculation

      iter #   1 total cpu time :  2031.1 secs   av.it.:   5.0
      thresh= 1.000E-02 alpha_mix =  0.700 |ddv_scf|^2 =  6.720E-08

      iter #   2 total cpu time :  2035.3 secs   av.it.:  11.0
      thresh= 2.592E-05 alpha_mix =  0.700 |ddv_scf|^2 =  1.036E-07

      iter #   3 total cpu time :  2039.2 secs   av.it.:  10.5
      thresh= 3.219E-05 alpha_mix =  0.700 |ddv_scf|^2 =  2.134E-09

      iter #   4 total cpu time :  2043.2 secs   av.it.:  10.0
      thresh= 4.619E-06 alpha_mix =  0.700 |ddv_scf|^2 =  3.814E-11

      iter #   5 total cpu time :  2047.8 secs   av.it.:  11.0
      thresh= 6.176E-07 alpha_mix =  0.700 |ddv_scf|^2 =  5.366E-12

      iter #   6 total cpu time :  2052.3 secs   av.it.:  11.0
      thresh= 2.317E-07 alpha_mix =  0.700 |ddv_scf|^2 =  3.807E-13

      iter #   7 total cpu time :  2056.9 secs   av.it.:  10.5
      thresh= 6.170E-08 alpha_mix =  0.700 |ddv_scf|^2 =  3.425E-15

     End of self-consistent calculation

     Convergence has been achieved 


     Representation # 40 mode #  40

     Self-consistent Calculation

      iter #   1 total cpu time :  2060.0 secs   av.it.:   4.0
      thresh= 1.000E-02 alpha_mix =  0.700 |ddv_scf|^2 =  1.196E-08

      iter #   2 total cpu time :  2064.6 secs   av.it.:  11.0
      thresh= 1.094E-05 alpha_mix =  0.700 |ddv_scf|^2 =  2.003E-08

      iter #   3 total cpu time :  2069.1 secs   av.it.:  10.0
      thresh= 1.415E-05 alpha_mix =  0.700 |ddv_scf|^2 =  5.483E-11

      iter #   4 total cpu time :  2073.3 secs   av.it.:  11.0
      thresh= 7.405E-07 alpha_mix =  0.700 |ddv_scf|^2 =  5.827E-11

      iter #   5 total cpu time :  2077.0 secs   av.it.:  10.5
      thresh= 7.634E-07 alpha_mix =  0.700 |ddv_scf|^2 =  6.172E-13

      iter #   6 total cpu time :  2080.8 secs   av.it.:  11.0
      thresh= 7.856E-08 alpha_mix =  0.700 |ddv_scf|^2 =  1.154E-13

      iter #   7 total cpu time :  2084.5 secs   av.it.:  11.0
      thresh= 3.397E-08 alpha_mix =  0.700 |ddv_scf|^2 =  1.116E-15

     End of self-consistent calculation

     Convergence has been achieved 


     Representation # 41 mode #  41

     Self-consistent Calculation

      iter #   1 total cpu time :  2087.4 secs   av.it.:   5.0
      thresh= 1.000E-02 alpha_mix =  0.700 |ddv_scf|^2 =  1.257E-07

      iter #   2 total cpu time :  2091.1 secs   av.it.:  11.0
      thresh= 3.546E-05 alpha_mix =  0.700 |ddv_scf|^2 =  2.244E-07

      iter #   3 total cpu time :  2094.7 secs   av.it.:  10.0
      thresh= 4.737E-05 alpha_mix =  0.700 |ddv_scf|^2 =  1.091E-09

      iter #   4 total cpu time :  2098.3 secs   av.it.:  10.5
      thresh= 3.303E-06 alpha_mix =  0.700 |ddv_scf|^2 =  1.642E-10

      iter #   5 total cpu time :  2102.0 secs   av.it.:  10.5
      thresh= 1.281E-06 alpha_mix =  0.700 |ddv_scf|^2 =  1.575E-11

      iter #   6 total cpu time :  2106.2 secs   av.it.:  11.0
      thresh= 3.968E-07 alpha_mix =  0.700 |ddv_scf|^2 =  1.861E-12

      iter #   7 total cpu time :  2110.4 secs   av.it.:  10.5
      thresh= 1.364E-07 alpha_mix =  0.700 |ddv_scf|^2 =  1.205E-14

      iter #   8 total cpu time :  2114.8 secs   av.it.:  10.0
      thresh= 1.098E-08 alpha_mix =  0.700 |ddv_scf|^2 =  1.403E-16

     End of self-consistent calculation

     Convergence has been achieved 


     Representation # 42 mode #  42

     Self-consistent Calculation

      iter #   1 total cpu time :  2117.8 secs   av.it.:   3.5
      thresh= 1.000E-02 alpha_mix =  0.700 |ddv_scf|^2 =  2.997E-09

      iter #   2 total cpu time :  2122.5 secs   av.it.:  11.0
      thresh= 5.474E-06 alpha_mix =  0.700 |ddv_scf|^2 =  4.279E-09

      iter #   3 total cpu time :  2126.9 secs   av.it.:  10.0
      thresh= 6.542E-06 alpha_mix =  0.700 |ddv_scf|^2 =  5.962E-11

      iter #   4 total cpu time :  2131.4 secs   av.it.:  11.0
      thresh= 7.721E-07 alpha_mix =  0.700 |ddv_scf|^2 =  3.238E-11

      iter #   5 total cpu time :  2136.0 secs   av.it.:  10.0
      thresh= 5.690E-07 alpha_mix =  0.700 |ddv_scf|^2 =  2.489E-13

      iter #   6 total cpu time :  2140.7 secs   av.it.:  11.0
      thresh= 4.989E-08 alpha_mix =  0.700 |ddv_scf|^2 =  5.608E-14

      iter #   7 total cpu time :  2145.7 secs   av.it.:  10.5
      thresh= 2.368E-08 alpha_mix =  0.700 |ddv_scf|^2 =  1.367E-15

     End of self-consistent calculation

     Convergence has been achieved 

     Number of q in the star =    1
     List of q in the star:
          1   0.000000000   0.000000000   0.000000000

          Dielectric constant in cartesian axis 

          (      30.778151473       0.000000000       0.000000000 )
          (       0.000000000       1.714352971       0.000000000 )
          (       0.000000000       0.000000000       1.253781851 )

          Effective charges (d Force / dE) in cartesian axis

           atom      1   H  
      Ex  (        0.14884       -0.15227        0.00000 )
      Ey  (        0.10896       -0.04068        0.00000 )
      Ez  (        0.00000        0.00000        0.12823 )
           atom      2   H  
      Ex  (        0.14884        0.15227        0.00000 )
      Ey  (       -0.10896       -0.04068        0.00000 )
      Ez  (        0.00000        0.00000        0.12823 )
           atom      3   C  
      Ex  (       -1.09761        3.02445        0.00000 )
      Ey  (       -0.01902        0.17010        0.00000 )
      Ez  (        0.00000        0.00000       -0.13569 )
           atom      4   C  
      Ex  (       -1.09761       -3.02445        0.00000 )
      Ey  (        0.01902        0.17010        0.00000 )
      Ez  (        0.00000        0.00000       -0.13569 )
           atom      5   C  
      Ex  (       -2.23027        1.40428       -0.00000 )
      Ey  (        0.33357       -0.06523        0.00000 )
      Ez  (       -0.00000        0.00000        0.03016 )
           atom      6   C  
      Ex  (       -2.23027       -1.40428       -0.00000 )
      Ey  (       -0.33357       -0.06523        0.00000 )
      Ez  (        0.00000        0.00000        0.03016 )
           atom      7   C  
      Ex  (        1.83417       -0.00000        0.00000 )
      Ey  (        0.00000       -0.05857        0.00000 )
      Ez  (        0.00000        0.00000        0.02003 )
           atom      8   C  
      Ex  (        1.83417        0.00000        0.00000 )
      Ey  (        0.00000       -0.05857        0.00000 )
      Ez  (        0.00000        0.00000        0.02003 )
           atom      9   C  
      Ex  (       -2.23027       -1.40428        0.00000 )
      Ey  (       -0.33357       -0.06523       -0.00000 )
      Ez  (       -0.00000        0.00000        0.03016 )
           atom     10   C  
      Ex  (       -2.23027        1.40428       -0.00000 )
      Ey  (        0.33357       -0.06523        0.00000 )
      Ez  (       -0.00000       -0.00000        0.03016 )
           atom     11   C  
      Ex  (       -1.09761       -3.02445        0.00000 )
      Ey  (        0.01902        0.17010        0.00000 )
      Ez  (        0.00000        0.00000       -0.13569 )
           atom     12   C  
      Ex  (       -1.09761        3.02445        0.00000 )
      Ey  (       -0.01902        0.17010        0.00000 )
      Ez  (        0.00000        0.00000       -0.13569 )
           atom     13   H  
      Ex  (        0.14884        0.15227       -0.00000 )
      Ey  (       -0.10896       -0.04068       -0.00000 )
      Ez  (        0.00000        0.00000        0.12823 )
           atom     14   H  
      Ex  (        0.14884       -0.15227        0.00000 )
      Ey  (        0.10896       -0.04068       -0.00000 )
      Ez  (        0.00000        0.00000        0.12823 )

     Diagonalizing the dynamical matrix

     q = (    0.000000000   0.000000000   0.000000000 ) 

 **************************************************************************
     freq (    1) =      -1.314619 [THz] =     -43.850965 [cm-1]
     freq (    2) =       0.744305 [THz] =      24.827354 [cm-1]
     freq (    3) =       1.421582 [THz] =      47.418856 [cm-1]
     freq (    4) =       2.190496 [THz] =      73.067094 [cm-1]
     freq (    5) =       5.209152 [THz] =     173.758607 [cm-1]
     freq (    6) =      10.258282 [THz] =     342.179468 [cm-1]
     freq (    7) =      10.512905 [THz] =     350.672775 [cm-1]
     freq (    8) =      10.582866 [THz] =     353.006416 [cm-1]
     freq (    9) =      11.582387 [THz] =     386.346841 [cm-1]
     freq (   10) =      15.899808 [THz] =     530.360520 [cm-1]
     freq (   11) =      16.094059 [THz] =     536.840016 [cm-1]
     freq (   12) =      16.192168 [THz] =     540.112593 [cm-1]
     freq (   13) =      16.788284 [THz] =     559.996877 [cm-1]
     freq (   14) =      19.516484 [THz] =     650.999838 [cm-1]
     freq (   15) =      21.898088 [THz] =     730.441579 [cm-1]
     freq (   16) =      21.953952 [THz] =     732.305013 [cm-1]
     freq (   17) =      22.199858 [THz] =     740.507563 [cm-1]
     freq (   18) =      22.865192 [THz] =     762.700720 [cm-1]
     freq (   19) =      24.769166 [THz] =     826.210451 [cm-1]
     freq (   20) =      25.377260 [THz] =     846.494272 [cm-1]
     freq (   21) =      27.341357 [THz] =     912.009489 [cm-1]
     freq (   22) =      27.354549 [THz] =     912.449549 [cm-1]
     freq (   23) =      28.133607 [THz] =     938.436126 [cm-1]
     freq (   24) =      32.340193 [THz] =    1078.752707 [cm-1]
     freq (   25) =      32.561896 [THz] =    1086.147941 [cm-1]
     freq (   26) =      32.693220 [THz] =    1090.528422 [cm-1]
     freq (   27) =      34.278584 [THz] =    1143.410484 [cm-1]
     freq (   28) =      37.465286 [THz] =    1249.707406 [cm-1]
     freq (   29) =      37.816174 [THz] =    1261.411779 [cm-1]
     freq (   30) =      38.022949 [THz] =    1268.309070 [cm-1]
     freq (   31) =      39.601834 [THz] =    1320.974999 [cm-1]
     freq (   32) =      40.501665 [THz] =    1350.990113 [cm-1]
     freq (   33) =      40.939058 [THz] =    1365.579988 [cm-1]
     freq (   34) =      42.181223 [THz] =    1407.014159 [cm-1]
     freq (   35) =      44.050191 [THz] =    1469.356221 [cm-1]
     freq (   36) =      44.899555 [THz] =    1497.687934 [cm-1]
     freq (   37) =      46.441400 [THz] =    1549.118354 [cm-1]
     freq (   38) =      49.685894 [THz] =    1657.343021 [cm-1]
     freq (   39) =      96.010387 [THz] =    3202.561800 [cm-1]
     freq (   40) =      96.022422 [THz] =    3202.963225 [cm-1]
     freq (   41) =      97.249790 [THz] =    3243.903834 [cm-1]
     freq (   42) =      97.259485 [THz] =    3244.227205 [cm-1]
 **************************************************************************

     Mode symmetry, D_2h (mmm)  point group:

     freq (  1 -  1) =        -43.9  [cm-1]   --> B_1u            I  
     freq (  2 -  2) =         24.8  [cm-1]   --> B_3g            R  
     freq (  3 -  3) =         47.4  [cm-1]   --> B_3u            I  
     freq (  4 -  4) =         73.1  [cm-1]   --> B_2u            I  
     freq (  5 -  5) =        173.8  [cm-1]   --> B_1u            I  
     freq (  6 -  6) =        342.2  [cm-1]   --> A_u                
     freq (  7 -  7) =        350.7  [cm-1]   --> B_1g            R  
     freq (  8 -  8) =        353.0  [cm-1]   --> B_3g            R  
     freq (  9 -  9) =        386.3  [cm-1]   --> B_2g            R  
     freq ( 10 - 10) =        530.4  [cm-1]   --> B_1u            I  
     freq ( 11 - 11) =        536.8  [cm-1]   --> A_g             R  
     freq ( 12 - 12) =        540.1  [cm-1]   --> B_1g            R  
     freq ( 13 - 13) =        560.0  [cm-1]   --> B_2g            R  
     freq ( 14 - 14) =        651.0  [cm-1]   --> B_3u            I  
     freq ( 15 - 15) =        730.4  [cm-1]   --> B_1u            I  
     freq ( 16 - 16) =        732.3  [cm-1]   --> A_u                
     freq ( 17 - 17) =        740.5  [cm-1]   --> B_3g            R  
     freq ( 18 - 18) =        762.7  [cm-1]   --> B_3u            I  
     freq ( 19 - 19) =        826.2  [cm-1]   --> B_2u            I  
     freq ( 20 - 20) =        846.5  [cm-1]   --> B_2g            R  
     freq ( 21 - 21) =        912.0  [cm-1]   --> B_2g            R  
     freq ( 22 - 22) =        912.4  [cm-1]   --> A_u                
     freq ( 23 - 23) =        938.4  [cm-1]   --> B_1g            R  
     freq ( 24 - 24) =       1078.8  [cm-1]   --> B_2u            I  
     freq ( 25 - 25) =       1086.1  [cm-1]   --> B_1g            R  
     freq ( 26 - 26) =       1090.5  [cm-1]   --> A_g             R  
     freq ( 27 - 27) =       1143.4  [cm-1]   --> B_3u            I  
     freq ( 28 - 28) =       1249.7  [cm-1]   --> A_g             R  
     freq ( 29 - 29) =       1261.4  [cm-1]   --> A_g             R  
     freq ( 30 - 30) =       1268.3  [cm-1]   --> B_2u            I  
     freq ( 31 - 31) =       1321.0  [cm-1]   --> B_2u            I  
     freq ( 32 - 32) =       1351.0  [cm-1]   --> B_3u            I  
     freq ( 33 - 33) =       1365.6  [cm-1]   --> B_1g            R  
     freq ( 34 - 34) =       1407.0  [cm-1]   --> B_3u            I  
     freq ( 35 - 35) =       1469.4  [cm-1]   --> A_g             R  
     freq ( 36 - 36) =       1497.7  [cm-1]   --> B_1g            R  
     freq ( 37 - 37) =       1549.1  [cm-1]   --> B_2u            I  
     freq ( 38 - 38) =       1657.3  [cm-1]   --> A_g             R  
     freq ( 39 - 39) =       3202.6  [cm-1]   --> B_1g            R  
     freq ( 40 - 40) =       3203.0  [cm-1]   --> B_3u            I  
     freq ( 41 - 41) =       3243.9  [cm-1]   --> B_2u            I  
     freq ( 42 - 42) =       3244.2  [cm-1]   --> A_g             R  

     PHONON       : 35m18.55s CPU    35m46.80s WALL

     INITIALIZATION: 
     phq_setup    :      0.43s CPU      0.44s WALL (       1 calls)
     phq_init     :     15.34s CPU     15.38s WALL (       1 calls)

     phq_init     :     15.34s CPU     15.38s WALL (       1 calls)
     init_vloc    :      1.70s CPU      1.70s WALL (       1 calls)
     init_us_1    :      0.03s CPU      0.03s WALL (       1 calls)

     DIELECTRIC CONSTANT AND EFFECTIVE CHARGES:
     solve_e      :    193.14s CPU    196.84s WALL (       1 calls)
     dielec       :      0.02s CPU      0.04s WALL (       1 calls)
     zstar_eu     :     11.30s CPU     11.52s WALL (       1 calls)

     RAMAN COEFFICIENTS, THIRD-ORDER CHI:
     dhdrhopsi    :    357.82s CPU    360.34s WALL (       1 calls)
     dvpsi_e2     :     14.63s CPU     14.80s WALL (       1 calls)
     solve_e2     :    306.01s CPU    311.74s WALL (       1 calls)

     DYNAMICAL MATRIX:
     dynmat0      :      6.99s CPU      7.01s WALL (       1 calls)
     phqscf       :   1173.36s CPU   1188.90s WALL (       1 calls)
     dynmatrix    :      0.03s CPU      0.03s WALL (       1 calls)

     phqscf       :   1173.36s CPU   1188.90s WALL (       1 calls)
     solve_linter :   1141.13s CPU   1156.36s WALL (      42 calls)
     drhodv       :     30.91s CPU     31.03s WALL (      42 calls)

     dynmat0      :      6.99s CPU      7.01s WALL (       1 calls)
     dynmat_us    :      2.11s CPU      2.12s WALL (       1 calls)
     d2ionq       :      4.87s CPU      4.88s WALL (       1 calls)

     dynmat_us    :      2.11s CPU      2.12s WALL (       1 calls)

     phqscf       :   1173.36s CPU   1188.90s WALL (       1 calls)
     solve_linter :   1141.13s CPU   1156.36s WALL (      42 calls)

     solve_linter :   1141.13s CPU   1156.36s WALL (      42 calls)
     dvqpsi_us    :     59.25s CPU     59.52s WALL (     252 calls)
     ortho        :      3.87s CPU      3.90s WALL (     350 calls)
     cgsolve      :   1522.59s CPU   1533.32s WALL (     446 calls)
     incdrhoscf   :    126.34s CPU    127.12s WALL (     407 calls)
     vpsifft      :     68.55s CPU     69.21s WALL (     248 calls)
     dv_of_drho   :     63.27s CPU     63.71s WALL (     416 calls)
     mix_pot      :      9.11s CPU     16.89s WALL (     316 calls)
     psymdvscf    :     76.25s CPU     76.37s WALL (     290 calls)

     dvqpsi_us    :     59.25s CPU     59.52s WALL (     252 calls)
     dvqpsi_us_on :      0.99s CPU      1.00s WALL (     252 calls)

     cgsolve      :   1522.59s CPU   1533.32s WALL (     446 calls)
     ch_psi       :   1451.67s CPU   1461.79s WALL (    7609 calls)

     ch_psi       :   1451.67s CPU   1461.79s WALL (    7609 calls)
     h_psiq       :   1331.68s CPU   1341.17s WALL (    7609 calls)
     last         :    108.66s CPU    109.18s WALL (    7609 calls)

     h_psiq       :   1331.68s CPU   1341.17s WALL (    7609 calls)
     firstfft     :    626.40s CPU    630.92s WALL (  114626 calls)
     secondfft    :    575.86s CPU    580.10s WALL (  114626 calls)
     add_vuspsi   :     15.88s CPU     15.98s WALL (    9599 calls)

     incdrhoscf   :    126.34s CPU    127.12s WALL (     407 calls)


      General routines
     calbec       :     33.91s CPU     34.21s WALL (   19903 calls)
     fft          :     40.15s CPU     40.39s WALL (    4590 calls)
     ffts         :     16.14s CPU     16.21s WALL (    2016 calls)
     fftw         :   1381.67s CPU   1391.47s WALL (  280084 calls)
     davcio       :      0.48s CPU     11.97s WALL (    4030 calls)
     write_rec    :      2.47s CPU      4.31s WALL (     358 calls)


     PHONON       : 35m18.55s CPU    35m46.80s WALL


   This run was terminated on:  21:21:51   5Jul2014            

=------------------------------------------------------------------------------=
   JOB DONE.
=------------------------------------------------------------------------------=
