ANIMSTEPS  48
CRYSTAL
PRIMVEC
    4.260844976    0.000000000    0.000000000
    0.000000000   12.999999935    0.000000000
    0.000000000    0.000000000    8.000000189
PRIMCOORD  1
     16   1
   H      4.40911  -4.01656   0.00000  -0.00000  -0.00000  -0.02464
   H      1.98216  -4.01656  -0.00000  -0.00000  -0.00000  -0.02464
   C      3.88641  -3.05884   0.00000  -0.00000  -0.00000  -0.02493
   C      2.50486  -3.05884   0.00000  -0.00000  -0.00000  -0.02493
   C      0.32922  -1.85508   0.00000  -0.00000  -0.00000  -0.02513
   C      1.80120  -1.85508  -0.00000  -0.00000  -0.00000  -0.02513
   C      3.91055  -0.62538   0.00000  -0.00000  -0.00000  -0.02529
   C      2.48072  -0.62538  -0.00000  -0.00000  -0.00000  -0.02529
   C      0.35030   0.62538   0.00000  -0.00000  -0.00000  -0.02529
   C      1.78013   0.62538  -0.00000  -0.00000  -0.00000  -0.02529
   C      3.93162   1.85508   0.00000  -0.00000  -0.00000  -0.02513
   C      2.45964   1.85508  -0.00000  -0.00000  -0.00000  -0.02513
   C      0.37443   3.05884   0.00000  -0.00000  -0.00000  -0.02493
   C      1.75599   3.05884   0.00000  -0.00000  -0.00000  -0.02493
   H     -0.14826   4.01656   0.00000  -0.00000  -0.00000  -0.02464
   H      2.27869   4.01656  -0.00000  -0.00000  -0.00000  -0.02464
PRIMCOORD  2
     16   1
   H      4.40911  -4.01656   0.00000   0.02496  -0.00031  -0.00000
   H      1.98216  -4.01656  -0.00000   0.02496   0.00031  -0.00000
   C      3.88641  -3.05884   0.00000   0.02514  -0.00022  -0.00000
   C      2.50486  -3.05884   0.00000   0.02514   0.00022  -0.00000
   C      0.32922  -1.85508   0.00000   0.02497  -0.00013  -0.00000
   C      1.80120  -1.85508  -0.00000   0.02497   0.00013  -0.00000
   C      3.91055  -0.62538   0.00000   0.02493  -0.00015  -0.00000
   C      2.48072  -0.62538  -0.00000   0.02493   0.00015  -0.00000
   C      0.35030   0.62538   0.00000   0.02493  -0.00015   0.00000
   C      1.78013   0.62538  -0.00000   0.02493   0.00015   0.00000
   C      3.93162   1.85508   0.00000   0.02497  -0.00013   0.00000
   C      2.45964   1.85508  -0.00000   0.02497   0.00013   0.00000
   C      0.37443   3.05884   0.00000   0.02514  -0.00022   0.00000
   C      1.75599   3.05884   0.00000   0.02514   0.00022   0.00000
   H     -0.14826   4.01656   0.00000   0.02496  -0.00031   0.00000
   H      2.27869   4.01656  -0.00000   0.02496   0.00031   0.00000
PRIMCOORD  3
     16   1
   H      4.40911  -4.01656   0.00000  -0.00000  -0.00000  -0.03716
   H      1.98216  -4.01656  -0.00000  -0.00000  -0.00000  -0.03716
   C      3.88641  -3.05884   0.00000  -0.00000  -0.00000  -0.02810
   C      2.50486  -3.05884   0.00000  -0.00000  -0.00000  -0.02810
   C      0.32922  -1.85508   0.00000  -0.00000  -0.00000  -0.01719
   C      1.80120  -1.85508  -0.00000  -0.00000  -0.00000  -0.01719
   C      3.91055  -0.62538   0.00000  -0.00000  -0.00000  -0.00583
   C      2.48072  -0.62538  -0.00000  -0.00000  -0.00000  -0.00583
   C      0.35030   0.62538   0.00000  -0.00000  -0.00000   0.00583
   C      1.78013   0.62538  -0.00000  -0.00000  -0.00000   0.00583
   C      3.93162   1.85508   0.00000  -0.00000  -0.00000   0.01719
   C      2.45964   1.85508  -0.00000  -0.00000  -0.00000   0.01719
   C      0.37443   3.05884   0.00000  -0.00000  -0.00000   0.02810
   C      1.75599   3.05884   0.00000  -0.00000  -0.00000   0.02810
   H     -0.14826   4.01656   0.00000  -0.00000  -0.00000   0.03716
   H      2.27869   4.01656  -0.00000  -0.00000  -0.00000   0.03716
PRIMCOORD  4
     16   1
   H      4.40911  -4.01656   0.00000   0.00003   0.02496  -0.00000
   H      1.98216  -4.01656  -0.00000  -0.00003   0.02496  -0.00000
   C      3.88641  -3.05884   0.00000  -0.00004   0.02491  -0.00000
   C      2.50486  -3.05884   0.00000   0.00004   0.02491  -0.00000
   C      0.32922  -1.85508   0.00000  -0.00005   0.02506  -0.00000
   C      1.80120  -1.85508  -0.00000   0.00005   0.02506  -0.00000
   C      3.91055  -0.62538   0.00000  -0.00001   0.02507  -0.00000
   C      2.48072  -0.62538  -0.00000   0.00001   0.02507  -0.00000
   C      0.35030   0.62538   0.00000  -0.00001   0.02507  -0.00000
   C      1.78013   0.62538  -0.00000   0.00001   0.02507  -0.00000
   C      3.93162   1.85508   0.00000  -0.00005   0.02506   0.00000
   C      2.45964   1.85508  -0.00000   0.00005   0.02506   0.00000
   C      0.37443   3.05884   0.00000  -0.00004   0.02491   0.00000
   C      1.75599   3.05884   0.00000   0.00004   0.02491   0.00000
   H     -0.14826   4.01656   0.00000   0.00003   0.02496   0.00000
   H      2.27869   4.01656  -0.00000  -0.00003   0.02496   0.00000
PRIMCOORD  5
     16   1
   H      4.40911  -4.01656   0.00000  -0.00000  -0.00000  -0.04063
   H      1.98216  -4.01656  -0.00000  -0.00000  -0.00000  -0.04063
   C      3.88641  -3.05884   0.00000  -0.00000  -0.00000  -0.02062
   C      2.50486  -3.05884   0.00000  -0.00000  -0.00000  -0.02062
   C      0.32922  -1.85508   0.00000  -0.00000  -0.00000   0.00337
   C      1.80120  -1.85508  -0.00000  -0.00000  -0.00000   0.00337
   C      3.91055  -0.62538   0.00000  -0.00000  -0.00000   0.02030
   C      2.48072  -0.62538  -0.00000  -0.00000  -0.00000   0.02030
   C      0.35030   0.62538   0.00000  -0.00000  -0.00000   0.02030
   C      1.78013   0.62538  -0.00000  -0.00000  -0.00000   0.02030
   C      3.93162   1.85508   0.00000  -0.00000  -0.00000   0.00337
   C      2.45964   1.85508  -0.00000  -0.00000  -0.00000   0.00337
   C      0.37443   3.05884   0.00000  -0.00000  -0.00000  -0.02062
   C      1.75599   3.05884   0.00000  -0.00000  -0.00000  -0.02062
   H     -0.14826   4.01656   0.00000  -0.00000  -0.00000  -0.04063
   H      2.27869   4.01656  -0.00000  -0.00000  -0.00000  -0.04063
PRIMCOORD  6
     16   1
   H      4.40911  -4.01656   0.00000  -0.03261  -0.00201  -0.00000
   H      1.98216  -4.01656  -0.00000  -0.03261   0.00201  -0.00000
   C      3.88641  -3.05884   0.00000  -0.02964  -0.00029   0.00000
   C      2.50486  -3.05884   0.00000  -0.02964   0.00029  -0.00000
   C      0.32922  -1.85508   0.00000  -0.02191  -0.00185   0.00000
   C      1.80120  -1.85508  -0.00000  -0.02191   0.00185   0.00000
   C      3.91055  -0.62538   0.00000  -0.00833   0.00107   0.00000
   C      2.48072  -0.62538  -0.00000  -0.00833  -0.00107   0.00000
   C      0.35030   0.62538   0.00000   0.00833  -0.00107  -0.00000
   C      1.78013   0.62538  -0.00000   0.00833   0.00107  -0.00000
   C      3.93162   1.85508   0.00000   0.02191   0.00185  -0.00000
   C      2.45964   1.85508  -0.00000   0.02191  -0.00185  -0.00000
   C      0.37443   3.05884   0.00000   0.02964   0.00029   0.00000
   C      1.75599   3.05884   0.00000   0.02964  -0.00029   0.00000
   H     -0.14826   4.01656   0.00000   0.03261   0.00201   0.00000
   H      2.27869   4.01656  -0.00000   0.03261  -0.00201   0.00000
PRIMCOORD  7
     16   1
   H      4.40911  -4.01656   0.00000  -0.00000   0.00000   0.04056
   H      1.98216  -4.01656  -0.00000  -0.00000   0.00000   0.04056
   C      3.88641  -3.05884   0.00000  -0.00000   0.00000   0.01191
   C      2.50486  -3.05884   0.00000  -0.00000   0.00000   0.01191
   C      0.32922  -1.85508   0.00000  -0.00000   0.00000  -0.02140
   C      1.80120  -1.85508  -0.00000  -0.00000   0.00000  -0.02140
   C      3.91055  -0.62538   0.00000  -0.00000   0.00000  -0.01597
   C      2.48072  -0.62538  -0.00000  -0.00000   0.00000  -0.01597
   C      0.35030   0.62538   0.00000   0.00000   0.00000   0.01597
   C      1.78013   0.62538  -0.00000   0.00000   0.00000   0.01597
   C      3.93162   1.85508   0.00000   0.00000   0.00000   0.02140
   C      2.45964   1.85508  -0.00000   0.00000  -0.00000   0.02140
   C      0.37443   3.05884   0.00000   0.00000   0.00000  -0.01191
   C      1.75599   3.05884   0.00000   0.00000  -0.00000  -0.01191
   H     -0.14826   4.01656   0.00000   0.00000   0.00000  -0.04056
   H      2.27869   4.01656  -0.00000   0.00000  -0.00000  -0.04056
PRIMCOORD  8
     16   1
   H      4.40911  -4.01656   0.00000   0.00000  -0.00000   0.04464
   H      1.98216  -4.01656  -0.00000   0.00000  -0.00000  -0.04464
   C      3.88641  -3.05884   0.00000   0.00000  -0.00000   0.02055
   C      2.50486  -3.05884   0.00000   0.00000  -0.00000  -0.02055
   C      0.32922  -1.85508   0.00000   0.00000  -0.00000   0.00898
   C      1.80120  -1.85508  -0.00000   0.00000  -0.00000  -0.00898
   C      3.91055  -0.62538   0.00000   0.00000  -0.00000  -0.00221
   C      2.48072  -0.62538  -0.00000  -0.00000  -0.00000   0.00221
   C      0.35030   0.62538   0.00000  -0.00000  -0.00000  -0.00221
   C      1.78013   0.62538  -0.00000  -0.00000   0.00000   0.00221
   C      3.93162   1.85508   0.00000  -0.00000  -0.00000   0.00898
   C      2.45964   1.85508  -0.00000  -0.00000   0.00000  -0.00898
   C      0.37443   3.05884   0.00000  -0.00000  -0.00000   0.02055
   C      1.75599   3.05884   0.00000  -0.00000   0.00000  -0.02055
   H     -0.14826   4.01656   0.00000  -0.00000  -0.00000   0.04464
   H      2.27869   4.01656  -0.00000  -0.00000   0.00000  -0.04464
PRIMCOORD  9
     16   1
   H      4.40911  -4.01656   0.00000  -0.00000   0.00000  -0.04312
   H      1.98216  -4.01656  -0.00000  -0.00000   0.00000   0.04312
   C      3.88641  -3.05884   0.00000  -0.00000   0.00000  -0.02150
   C      2.50486  -3.05884   0.00000  -0.00000   0.00000   0.02150
   C      0.32922  -1.85508   0.00000  -0.00000   0.00000  -0.01296
   C      1.80120  -1.85508  -0.00000  -0.00000   0.00000   0.01296
   C      3.91055  -0.62538   0.00000  -0.00000   0.00000  -0.00316
   C      2.48072  -0.62538  -0.00000   0.00000   0.00000   0.00316
   C      0.35030   0.62538   0.00000   0.00000   0.00000   0.00316
   C      1.78013   0.62538  -0.00000   0.00000   0.00000  -0.00316
   C      3.93162   1.85508   0.00000   0.00000  -0.00000   0.01296
   C      2.45964   1.85508  -0.00000   0.00000   0.00000  -0.01296
   C      0.37443   3.05884   0.00000  -0.00000  -0.00000   0.02150
   C      1.75599   3.05884   0.00000   0.00000   0.00000  -0.02150
   H     -0.14826   4.01656   0.00000  -0.00000  -0.00000   0.04312
   H      2.27869   4.01656  -0.00000  -0.00000   0.00000  -0.04312
PRIMCOORD 10
     16   1
   H      4.40911  -4.01656   0.00000   0.00391  -0.02961   0.00000
   H      1.98216  -4.01656  -0.00000  -0.00391  -0.02961  -0.00000
   C      3.88641  -3.05884   0.00000   0.00069  -0.03109  -0.00000
   C      2.50486  -3.05884   0.00000  -0.00069  -0.03109   0.00000
   C      0.32922  -1.85508   0.00000  -0.00247  -0.02326  -0.00000
   C      1.80120  -1.85508  -0.00000   0.00247  -0.02326   0.00000
   C      3.91055  -0.62538   0.00000   0.00194  -0.00947  -0.00000
   C      2.48072  -0.62538  -0.00000  -0.00194  -0.00947   0.00000
   C      0.35030   0.62538   0.00000  -0.00194   0.00947  -0.00000
   C      1.78013   0.62538  -0.00000   0.00194   0.00947   0.00000
   C      3.93162   1.85508   0.00000   0.00247   0.02326  -0.00000
   C      2.45964   1.85508  -0.00000  -0.00247   0.02326   0.00000
   C      0.37443   3.05884   0.00000  -0.00069   0.03109   0.00000
   C      1.75599   3.05884   0.00000   0.00069   0.03109  -0.00000
   H     -0.14826   4.01656   0.00000  -0.00391   0.02961   0.00000
   H      2.27869   4.01656  -0.00000   0.00391   0.02961  -0.00000
PRIMCOORD 11
     16   1
   H      4.40911  -4.01656   0.00000  -0.00000   0.00000   0.02462
   H      1.98216  -4.01656  -0.00000   0.00000   0.00000  -0.02462
   C      3.88641  -3.05884   0.00000  -0.00000   0.00000   0.00118
   C      2.50486  -3.05884   0.00000   0.00000   0.00000  -0.00118
   C      0.32922  -1.85508   0.00000   0.00000   0.00000  -0.02219
   C      1.80120  -1.85508  -0.00000  -0.00000   0.00000   0.02219
   C      3.91055  -0.62538   0.00000  -0.00000   0.00000  -0.03742
   C      2.48072  -0.62538  -0.00000   0.00000   0.00000   0.03742
   C      0.35030   0.62538   0.00000   0.00000  -0.00000  -0.03742
   C      1.78013   0.62538  -0.00000  -0.00000  -0.00000   0.03742
   C      3.93162   1.85508   0.00000  -0.00000  -0.00000  -0.02219
   C      2.45964   1.85508  -0.00000   0.00000  -0.00000   0.02219
   C      0.37443   3.05884   0.00000   0.00000  -0.00000   0.00118
   C      1.75599   3.05884   0.00000  -0.00000  -0.00000  -0.00118
   H     -0.14826   4.01656   0.00000   0.00000  -0.00000   0.02462
   H      2.27869   4.01656  -0.00000  -0.00000  -0.00000  -0.02462
PRIMCOORD 12
     16   1
   H      4.40911  -4.01656   0.00000  -0.00000  -0.00000   0.03450
   H      1.98216  -4.01656  -0.00000  -0.00000   0.00000   0.03450
   C      3.88641  -3.05884   0.00000   0.00000  -0.00000   0.00802
   C      2.50486  -3.05884   0.00000   0.00000   0.00000   0.00802
   C      0.32922  -1.85508   0.00000   0.00000  -0.00000  -0.02980
   C      1.80120  -1.85508  -0.00000   0.00000   0.00000  -0.02980
   C      3.91055  -0.62538   0.00000   0.00000  -0.00000   0.01890
   C      2.48072  -0.62538  -0.00000   0.00000   0.00000   0.01890
   C      0.35030   0.62538   0.00000  -0.00000  -0.00000   0.01890
   C      1.78013   0.62538  -0.00000  -0.00000   0.00000   0.01890
   C      3.93162   1.85508   0.00000  -0.00000  -0.00000  -0.02980
   C      2.45964   1.85508  -0.00000  -0.00000   0.00000  -0.02980
   C      0.37443   3.05884   0.00000  -0.00000  -0.00000   0.00802
   C      1.75599   3.05884   0.00000  -0.00000   0.00000   0.00802
   H     -0.14826   4.01656   0.00000  -0.00000  -0.00000   0.03450
   H      2.27869   4.01656  -0.00000  -0.00000   0.00000   0.03450
PRIMCOORD 13
     16   1
   H      4.40911  -4.01656   0.00000   0.03050   0.02700  -0.00000
   H      1.98216  -4.01656  -0.00000   0.03050  -0.02700   0.00000
   C      3.88641  -3.05884   0.00000   0.00918   0.01491  -0.00000
   C      2.50486  -3.05884   0.00000   0.00918  -0.01491   0.00000
   C      0.32922  -1.85508   0.00000  -0.00159   0.01624   0.00000
   C      1.80120  -1.85508  -0.00000  -0.00159  -0.01624  -0.00000
   C      3.91055  -0.62538   0.00000  -0.00991   0.01304  -0.00000
   C      2.48072  -0.62538  -0.00000  -0.00991  -0.01304  -0.00000
   C      0.35030   0.62538   0.00000  -0.00991   0.01304   0.00000
   C      1.78013   0.62538  -0.00000  -0.00991  -0.01304   0.00000
   C      3.93162   1.85508   0.00000  -0.00159   0.01624  -0.00000
   C      2.45964   1.85508  -0.00000  -0.00159  -0.01624  -0.00000
   C      0.37443   3.05884   0.00000   0.00918   0.01491   0.00000
   C      1.75599   3.05884   0.00000   0.00918  -0.01491  -0.00000
   H     -0.14826   4.01656   0.00000   0.03050   0.02700   0.00000
   H      2.27869   4.01656  -0.00000   0.03050  -0.02700  -0.00000
PRIMCOORD 14
     16   1
   H      4.40911  -4.01656   0.00000   0.00000   0.00000   0.01324
   H      1.98216  -4.01656  -0.00000   0.00000  -0.00000   0.01324
   C      3.88641  -3.05884   0.00000   0.00000  -0.00000   0.00550
   C      2.50486  -3.05884   0.00000   0.00000  -0.00000   0.00550
   C      0.32922  -1.85508   0.00000   0.00000   0.00000  -0.02521
   C      1.80120  -1.85508  -0.00000  -0.00000  -0.00000  -0.02521
   C      3.91055  -0.62538   0.00000  -0.00000   0.00000   0.04073
   C      2.48072  -0.62538  -0.00000  -0.00000   0.00000   0.04073
   C      0.35030   0.62538   0.00000  -0.00000   0.00000  -0.04073
   C      1.78013   0.62538  -0.00000  -0.00000   0.00000  -0.04073
   C      3.93162   1.85508   0.00000  -0.00000   0.00000   0.02521
   C      2.45964   1.85508  -0.00000  -0.00000   0.00000   0.02521
   C      0.37443   3.05884   0.00000   0.00000  -0.00000  -0.00550
   C      1.75599   3.05884   0.00000   0.00000   0.00000  -0.00550
   H     -0.14826   4.01656   0.00000   0.00000  -0.00000  -0.01324
   H      2.27869   4.01656  -0.00000   0.00000   0.00000  -0.01324
PRIMCOORD 15
     16   1
   H      4.40911  -4.01656   0.00000   0.00000  -0.00000   0.04158
   H      1.98216  -4.01656  -0.00000   0.00000  -0.00000  -0.04158
   C      3.88641  -3.05884   0.00000   0.00000  -0.00000   0.00808
   C      2.50486  -3.05884   0.00000   0.00000  -0.00000  -0.00808
   C      0.32922  -1.85508   0.00000  -0.00000  -0.00000  -0.02108
   C      1.80120  -1.85508  -0.00000   0.00000  -0.00000   0.02108
   C      3.91055  -0.62538   0.00000  -0.00000  -0.00000  -0.01618
   C      2.48072  -0.62538  -0.00000  -0.00000   0.00000   0.01618
   C      0.35030   0.62538   0.00000  -0.00000  -0.00000   0.01618
   C      1.78013   0.62538  -0.00000  -0.00000   0.00000  -0.01618
   C      3.93162   1.85508   0.00000   0.00000  -0.00000   0.02108
   C      2.45964   1.85508  -0.00000   0.00000   0.00000  -0.02108
   C      0.37443   3.05884   0.00000   0.00000  -0.00000  -0.00808
   C      1.75599   3.05884   0.00000   0.00000   0.00000   0.00808
   H     -0.14826   4.01656   0.00000   0.00000  -0.00000  -0.04158
   H      2.27869   4.01656  -0.00000   0.00000   0.00000   0.04158
PRIMCOORD 16
     16   1
   H      4.40911  -4.01656   0.00000  -0.01956   0.01748   0.00000
   H      1.98216  -4.01656  -0.00000  -0.01956  -0.01748  -0.00000
   C      3.88641  -3.05884   0.00000  -0.02501   0.01464   0.00000
   C      2.50486  -3.05884   0.00000  -0.02501  -0.01464  -0.00000
   C      0.32922  -1.85508   0.00000  -0.00008   0.00715  -0.00000
   C      1.80120  -1.85508  -0.00000  -0.00008  -0.00715   0.00000
   C      3.91055  -0.62538   0.00000   0.02720   0.01344   0.00000
   C      2.48072  -0.62538  -0.00000   0.02720  -0.01344   0.00000
   C      0.35030   0.62538   0.00000   0.02720   0.01344   0.00000
   C      1.78013   0.62538  -0.00000   0.02720  -0.01344  -0.00000
   C      3.93162   1.85508   0.00000  -0.00008   0.00715   0.00000
   C      2.45964   1.85508  -0.00000  -0.00008  -0.00715  -0.00000
   C      0.37443   3.05884   0.00000  -0.02501   0.01464  -0.00000
   C      1.75599   3.05884   0.00000  -0.02501  -0.01464   0.00000
   H     -0.14826   4.01656   0.00000  -0.01956   0.01748  -0.00000
   H      2.27869   4.01656  -0.00000  -0.01956  -0.01748   0.00000
PRIMCOORD 17
     16   1
   H      4.40911  -4.01656   0.00000  -0.02725  -0.03346   0.00000
   H      1.98216  -4.01656  -0.00000  -0.02725   0.03346  -0.00000
   C      3.88641  -3.05884   0.00000  -0.00123  -0.01861   0.00000
   C      2.50486  -3.05884   0.00000  -0.00123   0.01861   0.00000
   C      0.32922  -1.85508   0.00000   0.00462  -0.01441  -0.00000
   C      1.80120  -1.85508  -0.00000   0.00462   0.01441  -0.00000
   C      3.91055  -0.62538   0.00000   0.00492  -0.00605  -0.00000
   C      2.48072  -0.62538  -0.00000   0.00492   0.00605   0.00000
   C      0.35030   0.62538   0.00000  -0.00492   0.00605   0.00000
   C      1.78013   0.62538  -0.00000  -0.00492  -0.00605  -0.00000
   C      3.93162   1.85508   0.00000  -0.00462   0.01441   0.00000
   C      2.45964   1.85508  -0.00000  -0.00462  -0.01441  -0.00000
   C      0.37443   3.05884   0.00000   0.00123   0.01861  -0.00000
   C      1.75599   3.05884   0.00000   0.00123  -0.01861  -0.00000
   H     -0.14826   4.01656   0.00000   0.02725   0.03346   0.00000
   H      2.27869   4.01656  -0.00000   0.02725  -0.03346   0.00000
PRIMCOORD 18
     16   1
   H      4.40911  -4.01656   0.00000  -0.00000   0.00000  -0.04024
   H      1.98216  -4.01656  -0.00000   0.00000  -0.00000   0.04024
   C      3.88641  -3.05884   0.00000  -0.00000   0.00000  -0.00497
   C      2.50486  -3.05884   0.00000  -0.00000  -0.00000   0.00497
   C      0.32922  -1.85508   0.00000   0.00000   0.00000   0.02406
   C      1.80120  -1.85508  -0.00000   0.00000  -0.00000  -0.02406
   C      3.91055  -0.62538   0.00000   0.00000  -0.00000  -0.01665
   C      2.48072  -0.62538  -0.00000   0.00000  -0.00000   0.01665
   C      0.35030   0.62538   0.00000  -0.00000  -0.00000  -0.01665
   C      1.78013   0.62538  -0.00000   0.00000  -0.00000   0.01665
   C      3.93162   1.85508   0.00000  -0.00000  -0.00000   0.02406
   C      2.45964   1.85508  -0.00000  -0.00000   0.00000  -0.02406
   C      0.37443   3.05884   0.00000   0.00000  -0.00000  -0.00497
   C      1.75599   3.05884   0.00000  -0.00000   0.00000   0.00497
   H     -0.14826   4.01656   0.00000  -0.00000  -0.00000  -0.04024
   H      2.27869   4.01656  -0.00000  -0.00000   0.00000   0.04024
PRIMCOORD 19
     16   1
   H      4.40911  -4.01656   0.00000  -0.00000  -0.00000  -0.04936
   H      1.98216  -4.01656  -0.00000  -0.00000   0.00000  -0.04936
   C      3.88641  -3.05884   0.00000  -0.00000   0.00000   0.00739
   C      2.50486  -3.05884   0.00000  -0.00000   0.00000   0.00739
   C      0.32922  -1.85508   0.00000   0.00000   0.00000  -0.00299
   C      1.80120  -1.85508  -0.00000  -0.00000  -0.00000  -0.00299
   C      3.91055  -0.62538   0.00000   0.00000  -0.00000  -0.00028
   C      2.48072  -0.62538  -0.00000   0.00000  -0.00000  -0.00028
   C      0.35030   0.62538   0.00000  -0.00000  -0.00000  -0.00028
   C      1.78013   0.62538  -0.00000  -0.00000  -0.00000  -0.00028
   C      3.93162   1.85508   0.00000  -0.00000  -0.00000  -0.00299
   C      2.45964   1.85508  -0.00000  -0.00000  -0.00000  -0.00299
   C      0.37443   3.05884   0.00000   0.00000   0.00000   0.00739
   C      1.75599   3.05884   0.00000   0.00000  -0.00000   0.00739
   H     -0.14826   4.01656   0.00000  -0.00000  -0.00000  -0.04936
   H      2.27869   4.01656  -0.00000   0.00000   0.00000  -0.04936
PRIMCOORD 20
     16   1
   H      4.40911  -4.01656   0.00000   0.00000   0.00000  -0.04935
   H      1.98216  -4.01656  -0.00000  -0.00000   0.00000  -0.04935
   C      3.88641  -3.05884   0.00000   0.00000   0.00000   0.00742
   C      2.50486  -3.05884   0.00000   0.00000   0.00000   0.00742
   C      0.32922  -1.85508   0.00000  -0.00000   0.00000  -0.00272
   C      1.80120  -1.85508  -0.00000  -0.00000  -0.00000  -0.00272
   C      3.91055  -0.62538   0.00000  -0.00000  -0.00000  -0.00134
   C      2.48072  -0.62538  -0.00000  -0.00000  -0.00000  -0.00134
   C      0.35030   0.62538   0.00000   0.00000  -0.00000   0.00134
   C      1.78013   0.62538  -0.00000   0.00000  -0.00000   0.00134
   C      3.93162   1.85508   0.00000   0.00000  -0.00000   0.00272
   C      2.45964   1.85508  -0.00000   0.00000   0.00000   0.00272
   C      0.37443   3.05884   0.00000  -0.00000   0.00000  -0.00742
   C      1.75599   3.05884   0.00000   0.00000   0.00000  -0.00742
   H     -0.14826   4.01656   0.00000  -0.00000  -0.00000   0.04935
   H      2.27869   4.01656  -0.00000   0.00000  -0.00000   0.04935
PRIMCOORD 21
     16   1
   H      4.40911  -4.01656   0.00000   0.01864  -0.02030  -0.00000
   H      1.98216  -4.01656  -0.00000  -0.01864  -0.02030  -0.00000
   C      3.88641  -3.05884   0.00000   0.00227  -0.02853  -0.00000
   C      2.50486  -3.05884   0.00000  -0.00227  -0.02853   0.00000
   C      0.32922  -1.85508   0.00000  -0.01089   0.00204   0.00000
   C      1.80120  -1.85508  -0.00000   0.01089   0.00204   0.00000
   C      3.91055  -0.62538   0.00000   0.00401   0.02797   0.00000
   C      2.48072  -0.62538  -0.00000  -0.00401   0.02797  -0.00000
   C      0.35030   0.62538   0.00000   0.00401   0.02797  -0.00000
   C      1.78013   0.62538  -0.00000  -0.00401   0.02797   0.00000
   C      3.93162   1.85508   0.00000  -0.01089   0.00204  -0.00000
   C      2.45964   1.85508  -0.00000   0.01089   0.00204  -0.00000
   C      0.37443   3.05884   0.00000   0.00227  -0.02853  -0.00000
   C      1.75599   3.05884   0.00000  -0.00227  -0.02853   0.00000
   H     -0.14826   4.01656   0.00000   0.01864  -0.02030   0.00000
   H      2.27869   4.01656  -0.00000  -0.01864  -0.02030   0.00000
PRIMCOORD 22
     16   1
   H      4.40911  -4.01656   0.00000  -0.02822   0.01032   0.00000
   H      1.98216  -4.01656  -0.00000  -0.02822  -0.01032  -0.00000
   C      3.88641  -3.05884   0.00000  -0.02012   0.01523  -0.00000
   C      2.50486  -3.05884   0.00000  -0.02012  -0.01523   0.00000
   C      0.32922  -1.85508   0.00000   0.02218   0.00005  -0.00000
   C      1.80120  -1.85508  -0.00000   0.02218  -0.00005   0.00000
   C      3.91055  -0.62538   0.00000   0.02149  -0.00256   0.00000
   C      2.48072  -0.62538  -0.00000   0.02149   0.00256  -0.00000
   C      0.35030   0.62538   0.00000  -0.02149   0.00256  -0.00000
   C      1.78013   0.62538  -0.00000  -0.02149  -0.00256   0.00000
   C      3.93162   1.85508   0.00000  -0.02218  -0.00005   0.00000
   C      2.45964   1.85508  -0.00000  -0.02218   0.00005   0.00000
   C      0.37443   3.05884   0.00000   0.02012  -0.01523  -0.00000
   C      1.75599   3.05884   0.00000   0.02012   0.01523  -0.00000
   H     -0.14826   4.01656   0.00000   0.02822  -0.01032   0.00000
   H      2.27869   4.01656  -0.00000   0.02822   0.01032   0.00000
PRIMCOORD 23
     16   1
   H      4.40911  -4.01656   0.00000  -0.00000   0.00000  -0.03167
   H      1.98216  -4.01656  -0.00000  -0.00000  -0.00000   0.03167
   C      3.88641  -3.05884   0.00000  -0.00000   0.00000  -0.00164
   C      2.50486  -3.05884   0.00000  -0.00000  -0.00000   0.00164
   C      0.32922  -1.85508   0.00000   0.00000   0.00000   0.01967
   C      1.80120  -1.85508  -0.00000   0.00000  -0.00000  -0.01967
   C      3.91055  -0.62538   0.00000   0.00000   0.00000  -0.03327
   C      2.48072  -0.62538  -0.00000   0.00000   0.00000   0.03327
   C      0.35030   0.62538   0.00000  -0.00000   0.00000   0.03327
   C      1.78013   0.62538  -0.00000  -0.00000   0.00000  -0.03327
   C      3.93162   1.85508   0.00000  -0.00000  -0.00000  -0.01967
   C      2.45964   1.85508  -0.00000  -0.00000   0.00000   0.01967
   C      0.37443   3.05884   0.00000   0.00000  -0.00000   0.00164
   C      1.75599   3.05884   0.00000   0.00000   0.00000  -0.00164
   H     -0.14826   4.01656   0.00000   0.00000  -0.00000   0.03167
   H      2.27869   4.01656  -0.00000   0.00000   0.00000  -0.03167
PRIMCOORD 24
     16   1
   H      4.40911  -4.01656   0.00000  -0.00000   0.00000  -0.04862
   H      1.98216  -4.01656  -0.00000  -0.00000   0.00000   0.04862
   C      3.88641  -3.05884   0.00000  -0.00000  -0.00000   0.01082
   C      2.50486  -3.05884   0.00000   0.00000  -0.00000  -0.01082
   C      0.32922  -1.85508   0.00000   0.00000  -0.00000  -0.00440
   C      1.80120  -1.85508  -0.00000   0.00000   0.00000   0.00440
   C      3.91055  -0.62538   0.00000   0.00000   0.00000   0.00027
   C      2.48072  -0.62538  -0.00000  -0.00000   0.00000  -0.00027
   C      0.35030   0.62538   0.00000  -0.00000   0.00000   0.00027
   C      1.78013   0.62538  -0.00000  -0.00000   0.00000  -0.00027
   C      3.93162   1.85508   0.00000  -0.00000   0.00000  -0.00440
   C      2.45964   1.85508  -0.00000  -0.00000  -0.00000   0.00440
   C      0.37443   3.05884   0.00000   0.00000  -0.00000   0.01082
   C      1.75599   3.05884   0.00000   0.00000  -0.00000  -0.01082
   H     -0.14826   4.01656   0.00000   0.00000   0.00000  -0.04862
   H      2.27869   4.01656  -0.00000   0.00000   0.00000   0.04862
PRIMCOORD 25
     16   1
   H      4.40911  -4.01656   0.00000  -0.00000   0.00000  -0.04862
   H      1.98216  -4.01656  -0.00000  -0.00000   0.00000   0.04862
   C      3.88641  -3.05884   0.00000  -0.00000   0.00000   0.01077
   C      2.50486  -3.05884   0.00000  -0.00000  -0.00000  -0.01077
   C      0.32922  -1.85508   0.00000   0.00000   0.00000  -0.00447
   C      1.80120  -1.85508  -0.00000   0.00000  -0.00000   0.00447
   C      3.91055  -0.62538   0.00000   0.00000   0.00000   0.00071
   C      2.48072  -0.62538  -0.00000  -0.00000   0.00000  -0.00071
   C      0.35030   0.62538   0.00000  -0.00000  -0.00000  -0.00071
   C      1.78013   0.62538  -0.00000  -0.00000   0.00000   0.00071
   C      3.93162   1.85508   0.00000   0.00000  -0.00000   0.00447
   C      2.45964   1.85508  -0.00000  -0.00000   0.00000  -0.00447
   C      0.37443   3.05884   0.00000   0.00000  -0.00000  -0.01077
   C      1.75599   3.05884   0.00000   0.00000   0.00000   0.01077
   H     -0.14826   4.01656   0.00000   0.00000   0.00000   0.04862
   H      2.27869   4.01656  -0.00000   0.00000  -0.00000  -0.04862
PRIMCOORD 26
     16   1
   H      4.40911  -4.01656   0.00000   0.00499  -0.02551  -0.00000
   H      1.98216  -4.01656  -0.00000   0.00499   0.02551   0.00000
   C      3.88641  -3.05884   0.00000   0.01084  -0.02230   0.00000
   C      2.50486  -3.05884   0.00000   0.01084   0.02230  -0.00000
   C      0.32922  -1.85508   0.00000  -0.02247   0.00241   0.00000
   C      1.80120  -1.85508  -0.00000  -0.02247  -0.00241  -0.00000
   C      3.91055  -0.62538   0.00000   0.01109   0.02400  -0.00000
   C      2.48072  -0.62538  -0.00000   0.01109  -0.02400  -0.00000
   C      0.35030   0.62538   0.00000   0.01109   0.02400   0.00000
   C      1.78013   0.62538  -0.00000   0.01109  -0.02400  -0.00000
   C      3.93162   1.85508   0.00000  -0.02247   0.00241  -0.00000
   C      2.45964   1.85508  -0.00000  -0.02247  -0.00241   0.00000
   C      0.37443   3.05884   0.00000   0.01084  -0.02230  -0.00000
   C      1.75599   3.05884   0.00000   0.01084   0.02230  -0.00000
   H     -0.14826   4.01656   0.00000   0.00499  -0.02551   0.00000
   H      2.27869   4.01656  -0.00000   0.00499   0.02551  -0.00000
PRIMCOORD 27
     16   1
   H      4.40911  -4.01656   0.00000  -0.03561  -0.00039  -0.00000
   H      1.98216  -4.01656  -0.00000   0.03561  -0.00039   0.00000
   C      3.88641  -3.05884   0.00000  -0.00507   0.01606  -0.00000
   C      2.50486  -3.05884   0.00000   0.00507   0.01606  -0.00000
   C      0.32922  -1.85508   0.00000   0.01680  -0.01577   0.00000
   C      1.80120  -1.85508  -0.00000  -0.01680  -0.01577   0.00000
   C      3.91055  -0.62538   0.00000   0.00997  -0.01783  -0.00000
   C      2.48072  -0.62538  -0.00000  -0.00997  -0.01783  -0.00000
   C      0.35030   0.62538   0.00000  -0.00997   0.01783   0.00000
   C      1.78013   0.62538  -0.00000   0.00997   0.01783   0.00000
   C      3.93162   1.85508   0.00000  -0.01680   0.01577  -0.00000
   C      2.45964   1.85508  -0.00000   0.01680   0.01577  -0.00000