
     Program DYNMAT v.5.0.2 (svn rev. 10600) starts on  6Jul2014 at 14:24:47 

     This program is part of the open-source Quantum ESPRESSO suite
     for quantum simulation of materials; please cite
         "P. Giannozzi et al., J. Phys.:Condens. Matter 21 395502 (2009);
          URL http://www.quantum-espresso.org", 
     in publications or presentations arising from this work. More details at
     http://www.quantum-espresso.org/quote

     Parallel version (MPI), running on     1 processors

     Reading Dynamical Matrix from file gar-w_03-1H-ph.dyn
     ...Force constants read
     ...epsilon and Z* read
     ...Raman cross sections read
     A direction for q was not specified:TO-LO splitting will be absent

     Polarizability (A^3 units)
     multiply by 0.226436 for Clausius-Mossotti correction
       969.292495    0.000000    0.000000
         0.000000   23.252517    0.000000
         0.000000    0.000000    8.260716

     IR activities are in (D/A)^2/amu units
     Raman activities are in A^4/amu units
     multiply Raman by 0.051273 for Clausius-Mossotti correction

# mode   [cm-1]    [THz]      IR          Raman   depol.fact
    1    -43.85   -1.3146    0.0029         0.0000    0.7443
    2     24.83    0.7443    0.0000        14.6721    0.7500
    3     47.42    1.4216   15.7460         0.0000    0.4357
    4     73.07    2.1905    0.0031         0.0000    0.3604
    5    173.76    5.2092    0.0572         0.0000    0.3519
    6    342.18   10.2583    0.0000         0.0000    0.7491
    7    350.67   10.5129    0.0000      2378.3053    0.7500
    8    353.01   10.5829    0.0000         3.7637    0.7500
    9    386.35   11.5824    0.0000        14.9111    0.7500
   10    530.36   15.8998    0.1796         0.0000    0.3386
   11    536.84   16.0941    0.0000    455227.4493    0.3383
   12    540.11   16.1922    0.0000       111.1457    0.7500
   13    560.00   16.7883    0.0000       486.3327    0.7500
   14    651.00   19.5165    3.3058         0.0000    0.3593
   15    730.44   21.8981    1.4158         0.0000    0.3354
   16    732.31   21.9540    0.0000         0.0000    0.3332
   17    740.51   22.1999    0.0000         2.2155    0.7500
   18    762.70   22.8652   70.6612         0.0000    0.3457
   19    826.21   24.7692    0.0597         0.0000    0.3360
   20    846.49   25.3773    0.0000       248.5312    0.7500
   21    912.01   27.3414    0.0000      1192.8099    0.7500
   22    912.45   27.3546    0.0000         0.0000    0.7500
   23    938.44   28.1336    0.0000       342.5168    0.7500
   24   1078.75   32.3402    0.2598         0.0000    0.3359
   25   1086.15   32.5619    0.0000      6309.9682    0.7500
   26   1090.53   32.6932    0.0000   1048209.4623    0.3321
   27   1143.41   34.2786   13.0115         0.0000    0.3324
   28   1249.71   37.4653    0.0000  15045252.7160    0.3331
   29   1261.41   37.8162    0.0000   7168763.6945    0.3307
   30   1268.31   38.0229    0.9375         0.0000    0.3245
   31   1320.98   39.6018    0.2121         0.0000    0.3344
   32   1350.99   40.5017   26.3946         0.0000    0.7452
   33   1365.58   40.9391    0.0000      6028.2922    0.7500
   34   1407.01   42.1812    1.6855         0.0000    0.3360
   35   1469.36   44.0502    0.0000     31455.7139    0.2959
   36   1497.69   44.8996    0.0000     85975.2708    0.7500
   37   1549.12   46.4414    0.0000         0.0000    0.3551
   38   1657.34   49.6859    0.0000  35706405.6599    0.3324
   39   3202.56   96.0104    0.0000        21.0560    0.7500
   40   3202.96   96.0224   19.1822         0.0000    0.6367
   41   3243.90   97.2498    0.8923         0.0000    0.2119
   42   3244.23   97.2595    0.0000      7202.7322    0.2109

     DYNMAT       :     0.01s CPU         0.02s WALL


   This run was terminated on:  14:24:47   6Jul2014            

=------------------------------------------------------------------------------=
   JOB DONE.
=------------------------------------------------------------------------------=
