[Molden Format]
[FREQ]
    0.00
    0.00
    0.00
   26.08
   69.68
   86.06
  149.55
  290.88
  342.75
  431.63
  480.70
  516.77
  516.99
  546.55
  579.18
  653.32
  711.01
  772.55
  812.54
  816.11
  916.57
 1000.38
 1001.54
 1011.12
 1021.34
 1092.83
 1125.19
 1140.54
 1161.62
 1165.85
 1215.78
 1253.46
 1285.76
 1293.17
 1311.28
 1319.76
 1320.67
 1326.40
 1363.76
 1377.45
 1406.87
 1420.53
 1437.94
 1438.68
 1590.46
 1595.66
 2960.41
 2961.80
 2973.33
 2973.86
 3095.59
 3096.15
 3118.66
 3119.57
[FR-COORD]
   H           1.52614       -5.28326        2.43287
   H           2.34263       -6.32714       -0.62304
   H           5.70920       -6.32714        0.62304
   H           6.52569       -5.28326       -2.43287
   C           1.37493       -4.79915        0.39625
   C           6.67690       -4.79915       -0.39625
   C           2.70381       -2.29940        0.02513
   C           5.34802       -2.29940       -0.02513
   C           1.40883        0.00000       -0.00139
   C           6.64300        0.00000        0.00139
   C           2.70381        2.29940        0.02513
   C           5.34802        2.29940       -0.02513
   C           1.37493        4.79915        0.39625
   C           6.67690        4.79915       -0.39625
   H          -1.52614        5.28326       -2.43287
   H          -2.34263        6.32714        0.62304
   H          -5.70920        6.32714       -0.62304
   H          -6.52569        5.28326        2.43287
[FR-NORM-COORD]
 vibration     1
  -0.19223  -0.00590   0.14360
   0.00811  -0.22095   0.26308
  -0.00811  -0.22095  -0.26308
   0.19223  -0.00590  -0.14360
  -0.03147  -0.14072   0.09905
   0.03147  -0.14072  -0.09905
   0.00196  -0.17046   0.02259
  -0.00196  -0.17046  -0.02259
   0.00000  -0.16806   0.00000
   0.00000  -0.16806   0.00000
  -0.00196  -0.17046  -0.02259
   0.00196  -0.17046   0.02259
   0.03147  -0.14072  -0.09905
  -0.03147  -0.14072   0.09905
  -0.19223  -0.00590   0.14360
   0.00811  -0.22095   0.26308
  -0.00811  -0.22095  -0.26308
   0.19223  -0.00590  -0.14360
 vibration     2
   0.22112  -0.23710  -0.16508
  -0.01018   0.00732  -0.30184
   0.01018   0.00732   0.30184
  -0.22112  -0.23710   0.16508
   0.03617  -0.08376  -0.11424
  -0.03617  -0.08376   0.11424
  -0.00103  -0.05211  -0.02743
   0.00103  -0.05211   0.02743
  -0.00000  -0.05534  -0.00000
  -0.00000  -0.05534  -0.00000
   0.00103  -0.05211   0.02743
  -0.00103  -0.05211  -0.02743
  -0.03617  -0.08376   0.11424
   0.03617  -0.08376  -0.11424
   0.22112  -0.23710  -0.16508
  -0.01018   0.00732  -0.30184
   0.01018   0.00732   0.30184
  -0.22112  -0.23710   0.16508
 vibration     3
  -0.07569   0.04662  -0.20363
  -0.07640  -0.01365  -0.18337
  -0.07640   0.01365  -0.18337
  -0.07569  -0.04662  -0.20363
  -0.07521   0.00677  -0.21318
  -0.07521  -0.00677  -0.21318
  -0.07469   0.00028  -0.25833
  -0.07469  -0.00028  -0.25833
  -0.07306   0.00000  -0.26402
  -0.07306   0.00000  -0.26402
  -0.07469  -0.00028  -0.25833
  -0.07469   0.00028  -0.25833
  -0.07521  -0.00677  -0.21318
  -0.07521   0.00677  -0.21318
  -0.07569   0.04662  -0.20363
  -0.07640  -0.01365  -0.18337
  -0.07640   0.01365  -0.18337
  -0.07569  -0.04662  -0.20363
 vibration     4
   0.00407   0.11466   0.26134
   0.00206  -0.02920   0.31078
   0.00206   0.02920   0.31078
   0.00407  -0.11466   0.26134
   0.00253   0.01912   0.23901
   0.00253  -0.01912   0.23901
   0.00172   0.00148   0.11660
   0.00172  -0.00148   0.11660
  -0.00000  -0.00039  -0.00000
  -0.00000   0.00039  -0.00000
  -0.00172   0.00148  -0.11660
  -0.00172  -0.00148  -0.11660
  -0.00253   0.01912  -0.23901
  -0.00253  -0.01912  -0.23901
  -0.00407  -0.11466  -0.26134
  -0.00206   0.02920  -0.31078
  -0.00206  -0.02920  -0.31078
  -0.00407   0.11466  -0.26134
 vibration     5
  -0.23041   0.20432   0.17322
   0.00759  -0.07222   0.32169
  -0.00759  -0.07222  -0.32169
   0.23041   0.20432  -0.17322
  -0.03826   0.03038   0.11683
   0.03826   0.03038  -0.11683
   0.00079  -0.00386   0.01777
  -0.00079  -0.00386  -0.01777
   0.00173   0.00000   0.00777
  -0.00173   0.00000  -0.00777
   0.00079   0.00386   0.01777
  -0.00079   0.00386  -0.01777
  -0.03826  -0.03038   0.11683
   0.03826  -0.03038  -0.11683
   0.23041  -0.20432  -0.17322
  -0.00759   0.07222  -0.32169
   0.00759   0.07222   0.32169
  -0.23041  -0.20432   0.17322
 vibration     6
   0.22617  -0.01807  -0.08099
   0.22435   0.00476  -0.08944
   0.22435  -0.00476  -0.08944
   0.22617   0.01807  -0.08099
   0.22411  -0.00324  -0.07740
   0.22411   0.00324  -0.07740
   0.21858  -0.00124  -0.06322
   0.21858   0.00124  -0.06322
   0.21696  -0.00000  -0.06432
   0.21696  -0.00000  -0.06432
   0.21858   0.00124  -0.06322
   0.21858  -0.00124  -0.06322
   0.22411   0.00324  -0.07740
   0.22411  -0.00324  -0.07740
   0.22617  -0.01807  -0.08099
   0.22435   0.00476  -0.08944
   0.22435  -0.00476  -0.08944
   0.22617   0.01807  -0.08099
 vibration     7
  -0.00422  -0.25538  -0.20096
  -0.00695   0.07181  -0.31344
  -0.00695  -0.07181  -0.31344
  -0.00422   0.25538  -0.20096
  -0.00891  -0.03808  -0.14882
  -0.00891   0.03808  -0.14882
  -0.01098  -0.00131   0.08653
  -0.01098   0.00131   0.08653
  -0.01150   0.00000   0.13840
  -0.01150   0.00000   0.13840
  -0.01098   0.00131   0.08653
  -0.01098  -0.00131   0.08653
  -0.00891   0.03808  -0.14882
  -0.00891  -0.03808  -0.14882
  -0.00422  -0.25538  -0.20096
  -0.00695   0.07181  -0.31344
  -0.00695  -0.07181  -0.31344
  -0.00422   0.25538  -0.20096
 vibration     8
   0.10237  -0.33668  -0.10085
   0.04206   0.07222  -0.25883
   0.04206  -0.07222  -0.25883
   0.10237   0.33668  -0.10085
   0.06318  -0.06207  -0.03101
   0.06318   0.06207  -0.03101
   0.02786  -0.01834   0.17795
   0.02786   0.01834   0.17795
   0.00000  -0.02968   0.00000
   0.00000   0.02968  -0.00000
  -0.02786  -0.01834  -0.17795
  -0.02786   0.01834  -0.17795
  -0.06318  -0.06207   0.03101
  -0.06318   0.06207   0.03101
  -0.10237   0.33668   0.10085
  -0.04206  -0.07222   0.25883
  -0.04206   0.07222   0.25883
  -0.10237  -0.33668   0.10085
 vibration     9
   0.29174   0.09063   0.04370
   0.25299  -0.01005   0.06347
   0.25299   0.01005   0.06347
   0.29174  -0.09063   0.04370
   0.24725   0.01013   0.02657
   0.24725  -0.01013   0.02657
   0.12426   0.00620  -0.09477
   0.12426  -0.00620  -0.09477
   0.00000  -0.02139   0.00000
   0.00000   0.02139   0.00000
  -0.12426   0.00620   0.09477
  -0.12426  -0.00620   0.09477
  -0.24725   0.01013  -0.02657
  -0.24725  -0.01013  -0.02657
  -0.29174  -0.09063  -0.04370
  -0.25299   0.01005  -0.06347
  -0.25299  -0.01005  -0.06347
  -0.29174   0.09063  -0.04370
 vibration    10
   0.02822   0.33367   0.00067
  -0.06057  -0.00655   0.08739
   0.06057  -0.00655  -0.08739
  -0.02822   0.33367  -0.00067
  -0.00163   0.12410  -0.04895
   0.00163   0.12410   0.04895
   0.00078   0.04212  -0.23986
  -0.00078   0.04212   0.23986
  -0.01707  -0.00000  -0.31390
   0.01707   0.00000   0.31390
   0.00078  -0.04212  -0.23986
  -0.00078  -0.04212   0.23986
  -0.00163  -0.12410  -0.04895
   0.00163  -0.12410   0.04895
  -0.02822  -0.33367  -0.00067
   0.06057   0.00655  -0.08739
  -0.06057   0.00655   0.08739
   0.02822  -0.33367   0.00067
 vibration    11
  -0.13864   0.31525   0.03378
   0.01489  -0.08158   0.21392
   0.01489   0.08158   0.21392
  -0.13864  -0.31525   0.03378
  -0.02829   0.05318  -0.03874
  -0.02829  -0.05318  -0.03874
   0.02377   0.00589  -0.14120
   0.02377  -0.00589  -0.14120
   0.04037  -0.00000   0.31980
   0.04037   0.00000   0.31980
   0.02377  -0.00589  -0.14120
   0.02377   0.00589  -0.14120
  -0.02829  -0.05318  -0.03874
  -0.02829   0.05318  -0.03874
  -0.13864   0.31525   0.03378
   0.01489  -0.08158   0.21392
   0.01489   0.08158   0.21392
  -0.13864  -0.31525   0.03378
 vibration    12
  -0.05745  -0.11563   0.06849
   0.03854  -0.31137   0.14241
  -0.03854  -0.31137  -0.14241
   0.05745  -0.11563  -0.06849
  -0.00863  -0.26824   0.03050
   0.00863  -0.26824  -0.03050
  -0.01948  -0.13667  -0.09250
   0.01948  -0.13667   0.09250
   0.02949  -0.00000  -0.13351
  -0.02949   0.00000   0.13351
  -0.01948   0.13667  -0.09250
   0.01948   0.13667   0.09250
  -0.00863   0.26824   0.03050
   0.00863   0.26824  -0.03050
   0.05745   0.11563  -0.06849
  -0.03854   0.31137  -0.14241
   0.03854   0.31137   0.14241
  -0.05745   0.11563   0.06849
 vibration    13
   0.01291  -0.14372   0.05812
  -0.22142  -0.30556   0.02623
  -0.22142   0.30556   0.02623
   0.01291   0.14372   0.05812
  -0.01415  -0.18489   0.05111
  -0.01415   0.18489   0.05111
   0.00265  -0.16345  -0.08344
   0.00265   0.16345  -0.08344
  -0.00000  -0.15516   0.00000
   0.00000   0.15516  -0.00000
  -0.00265  -0.16345   0.08344
  -0.00265   0.16345   0.08344
   0.01415  -0.18489  -0.05111
   0.01415   0.18489  -0.05111
  -0.01291   0.14372  -0.05812
   0.22142   0.30556  -0.02623
   0.22142  -0.30556  -0.02623
  -0.01291  -0.14372  -0.05812
 vibration    14
   0.00822  -0.34803  -0.03151
   0.06631   0.16044  -0.17582
  -0.06631   0.16044   0.17582
  -0.00822  -0.34803   0.03151
   0.00865  -0.02492   0.04808
  -0.00865  -0.02492  -0.04808
   0.00209   0.02525   0.25053
  -0.00209   0.02525  -0.25053
  -0.00000   0.02625   0.00000
  -0.00000   0.02625   0.00000
  -0.00209   0.02525  -0.25053
   0.00209   0.02525   0.25053
  -0.00865  -0.02492  -0.04808
   0.00865  -0.02492   0.04808
   0.00822  -0.34803  -0.03151
   0.06631   0.16044  -0.17582
  -0.06631   0.16044   0.17582
  -0.00822  -0.34803   0.03151
 vibration    15
  -0.35806   0.12225  -0.00616
  -0.13251  -0.09651   0.14095
  -0.13251   0.09651   0.14095
  -0.35806  -0.12225  -0.00616
  -0.14681   0.01840  -0.04816
  -0.14681  -0.01840  -0.04816
   0.10185  -0.01485   0.07513
   0.10185   0.01485   0.07513
   0.18124  -0.00000  -0.07998
   0.18124   0.00000  -0.07998
   0.10185   0.01485   0.07513
   0.10185  -0.01485   0.07513
  -0.14681  -0.01840  -0.04816
  -0.14681   0.01840  -0.04816
  -0.35806   0.12225  -0.00616
  -0.13251  -0.09651   0.14095
  -0.13251   0.09651   0.14095
  -0.35806  -0.12225  -0.00616
 vibration    16
   0.08212  -0.26486   0.02643
  -0.27142  -0.19538  -0.11712
  -0.27142   0.19538  -0.11712
   0.08212   0.26486   0.02643
  -0.03964  -0.16158   0.06400
  -0.03964   0.16158   0.06400
   0.02147  -0.07400  -0.07625
   0.02147   0.07400  -0.07625
   0.06991  -0.00000   0.04183
   0.06991  -0.00000   0.04183
   0.02147   0.07400  -0.07625
   0.02147  -0.07400  -0.07625
  -0.03964   0.16158   0.06400
  -0.03964  -0.16158   0.06400
   0.08212  -0.26486   0.02643
  -0.27142  -0.19538  -0.11712
  -0.27142   0.19538  -0.11712
   0.08212   0.26486   0.02643
 vibration    17
  -0.30172   0.22468   0.01303
   0.07773  -0.15670   0.25134
   0.07773   0.15670   0.25134
  -0.30172  -0.22468   0.01303
   0.00178   0.00263  -0.06683
   0.00178  -0.00263  -0.06683
   0.07055  -0.02713   0.05602
   0.07055   0.02713   0.05602
  -0.00000  -0.04931  -0.00000
  -0.00000   0.04931   0.00000
  -0.07055  -0.02713  -0.05602
  -0.07055   0.02713  -0.05602
  -0.00178   0.00263   0.06683
  -0.00178  -0.00263   0.06683
   0.30172  -0.22468  -0.01303
  -0.07773   0.15670  -0.25134
  -0.07773  -0.15670  -0.25134
   0.30172   0.22468  -0.01303
 vibration    18
   0.00805   0.31186   0.00570
  -0.05116  -0.18679   0.14909
   0.05116  -0.18679  -0.14909
  -0.00805   0.31186  -0.00570
   0.00156  -0.00719  -0.07254
  -0.00156  -0.00719   0.07254
  -0.00029  -0.02413  -0.17239
   0.00029  -0.02413   0.17239
   0.01132  -0.00000   0.33832
  -0.01132   0.00000  -0.33832
  -0.00029   0.02413  -0.17239
   0.00029   0.02413   0.17239
   0.00156   0.00719  -0.07254
  -0.00156   0.00719   0.07254
  -0.00805  -0.31186  -0.00570
   0.05116   0.18679  -0.14909
  -0.05116   0.18679   0.14909
   0.00805  -0.31186   0.00570
 vibration    19
   0.23691  -0.16151  -0.03746
  -0.10040   0.26561  -0.25826
  -0.10040  -0.26561  -0.25826
   0.23691   0.16151  -0.03746
  -0.06211   0.08883   0.04914
  -0.06211  -0.08883   0.04914
   0.01836   0.03288  -0.03233
   0.01836  -0.03288  -0.03233
   0.06786  -0.00000   0.01609
   0.06786  -0.00000   0.01609
   0.01836  -0.03288  -0.03233
   0.01836   0.03288  -0.03233
  -0.06211  -0.08883   0.04914
  -0.06211   0.08883   0.04914
   0.23691  -0.16151  -0.03746
  -0.10040   0.26561  -0.25826
  -0.10040  -0.26561  -0.25826
   0.23691   0.16151  -0.03746
 vibration    20
   0.00520   0.08880  -0.09022
  -0.18277   0.21698  -0.14264
   0.18277   0.21698   0.14264
  -0.00520   0.08880   0.09022
  -0.03604   0.25751  -0.05269
   0.03604   0.25751   0.05269
   0.04322  -0.14545   0.05877
  -0.04322  -0.14545  -0.05877
  -0.00000  -0.26926  -0.00000
  -0.00000  -0.26926  -0.00000
  -0.04322  -0.14545  -0.05877
   0.04322  -0.14545   0.05877
   0.03604   0.25751   0.05269
  -0.03604   0.25751  -0.05269
   0.00520   0.08880  -0.09022
  -0.18277   0.21698  -0.14264
   0.18277   0.21698   0.14264
  -0.00520   0.08880   0.09022
 vibration    21
  -0.06647   0.16863   0.02754
   0.33151  -0.03498   0.18713
   0.33151   0.03498   0.18713
  -0.06647  -0.16863   0.02754
   0.10251  -0.03738  -0.03888
   0.10251   0.03738  -0.03888
  -0.23193  -0.04675   0.02568
  -0.23193   0.04675   0.02568
   0.00000   0.01978   0.00000
   0.00000  -0.01978  -0.00000
   0.23193  -0.04675  -0.02568
   0.23193   0.04675  -0.02568
  -0.10251  -0.03738   0.03888
  -0.10251   0.03738   0.03888
   0.06647  -0.16863  -0.02754
  -0.33151   0.03498  -0.18713
  -0.33151  -0.03498  -0.18713
   0.06647   0.16863  -0.02754
 vibration    22
   0.12171  -0.32710   0.04222
   0.07183   0.24004  -0.17682
  -0.07183   0.24004   0.17682
  -0.12171  -0.32710  -0.04222
   0.01644  -0.00207   0.13671
  -0.01644  -0.00207  -0.13671
  -0.01750   0.03537  -0.09921
   0.01750   0.03537   0.09921
  -0.03786   0.00000   0.05071
   0.03786  -0.00000  -0.05071
  -0.01750  -0.03537  -0.09921
   0.01750  -0.03537   0.09921
   0.01644   0.00207   0.13671
  -0.01644   0.00207  -0.13671
  -0.12171   0.32710  -0.04222
  -0.07183  -0.24004   0.17682
   0.07183  -0.24004  -0.17682
   0.12171   0.32710   0.04222
 vibration    23
   0.08259  -0.33912   0.02111
   0.01588   0.25168  -0.20195
  -0.01588   0.25168   0.20195
  -0.08259  -0.33912  -0.02111
  -0.01786   0.01948   0.12223
   0.01786   0.01948  -0.12223
  -0.02020  -0.00592  -0.08480
   0.02020  -0.00592   0.08480
  -0.00000  -0.01240   0.00000
   0.00000  -0.01240   0.00000
   0.02020  -0.00592   0.08480
  -0.02020  -0.00592  -0.08480
   0.01786   0.01948  -0.12223
  -0.01786   0.01948   0.12223
   0.08259  -0.33912   0.02111
   0.01588   0.25168  -0.20195
  -0.01588   0.25168   0.20195
  -0.08259  -0.33912  -0.02111
 vibration    24
   0.12348   0.22167   0.07687
   0.23102  -0.14503   0.18978
  -0.23102  -0.14503  -0.18978
  -0.12348   0.22167  -0.07687
   0.14400  -0.08820  -0.00063
  -0.14400  -0.08820   0.00063
  -0.00589   0.17041   0.02307
   0.00589   0.17041  -0.02307
  -0.14914  -0.00000  -0.00916
   0.14914   0.00000   0.00916
  -0.00589  -0.17041   0.02307
   0.00589  -0.17041  -0.02307
   0.14400   0.08820  -0.00063
  -0.14400   0.08820   0.00063
  -0.12348  -0.22167  -0.07687
  -0.23102   0.14503  -0.18978
   0.23102   0.14503   0.18978
   0.12348  -0.22167   0.07687
 vibration    25
   0.18647   0.05188  -0.04054
   0.13384   0.33125  -0.09610
   0.13384  -0.33125  -0.09610
   0.18647  -0.05188  -0.04054
  -0.03046   0.16121   0.00004
  -0.03046  -0.16121   0.00004
  -0.01349  -0.15282   0.00697
  -0.01349   0.15282   0.00697
   0.00000  -0.21687   0.00000
  -0.00000   0.21687  -0.00000
   0.01349  -0.15282  -0.00697
   0.01349   0.15282  -0.00697
   0.03046   0.16121  -0.00004
   0.03046  -0.16121  -0.00004
  -0.18647  -0.05188   0.04054
  -0.13384  -0.33125   0.09610
  -0.13384   0.33125   0.09610
  -0.18647   0.05188   0.04054
 vibration    26
   0.32460   0.16581   0.09043
   0.22247   0.01411   0.08952
  -0.22247   0.01411  -0.08952
  -0.32460   0.16581  -0.09043
   0.20614   0.01241   0.05980
  -0.20614   0.01241  -0.05980
   0.03539   0.01502   0.00420
  -0.03539   0.01502  -0.00420
  -0.00000  -0.08413   0.00000
  -0.00000  -0.08413   0.00000
  -0.03539   0.01502  -0.00420
   0.03539   0.01502   0.00420
  -0.20614   0.01241  -0.05980
   0.20614   0.01241   0.05980
   0.32460   0.16581   0.09043
   0.22247   0.01411   0.08952
  -0.22247   0.01411  -0.08952
  -0.32460   0.16581  -0.09043
 vibration    27
   0.13676   0.07925  -0.00047
  -0.36540  -0.21622  -0.03438
  -0.36540   0.21622  -0.03438
   0.13676  -0.07925  -0.00047
  -0.01457  -0.00413  -0.00803
  -0.01457   0.00413  -0.00803
   0.12550   0.10379   0.01003
   0.12550  -0.10379   0.01003
  -0.18246   0.00000   0.00057
  -0.18246   0.00000   0.00057
   0.12550  -0.10379   0.01003
   0.12550   0.10379   0.01003
  -0.01457   0.00413  -0.00803
  -0.01457  -0.00413  -0.00803
   0.13676   0.07925  -0.00047
  -0.36540  -0.21622  -0.03438
  -0.36540   0.21622  -0.03438
   0.13676  -0.07925  -0.00047
 vibration    28
   0.35993   0.15392   0.07080
   0.11807   0.00986   0.05849
  -0.11807   0.00986  -0.05849
  -0.35993   0.15392  -0.07080
   0.18745   0.05194   0.05494
  -0.18745   0.05194  -0.05494
   0.06666  -0.11217   0.01490
  -0.06666  -0.11217  -0.01490
   0.17973   0.00000  -0.00853
  -0.17973  -0.00000   0.00853
   0.06666   0.11217   0.01490
  -0.06666   0.11217  -0.01490
   0.18745  -0.05194   0.05494
  -0.18745  -0.05194  -0.05494
  -0.35993  -0.15392  -0.07080
  -0.11807  -0.00986  -0.05849
   0.11807  -0.00986   0.05849
   0.35993  -0.15392   0.07080
 vibration    29
  -0.38347  -0.28314  -0.01230
   0.09715   0.08868  -0.01429
   0.09715  -0.08868  -0.01429
  -0.38347   0.28314  -0.01230
   0.01244   0.00530   0.03016
   0.01244  -0.00530   0.03016
   0.03447   0.03011  -0.03015
   0.03447  -0.03011  -0.03015
  -0.04522   0.00000   0.00439
  -0.04522   0.00000   0.00439
   0.03447  -0.03011  -0.03015
   0.03447   0.03011  -0.03015
   0.01244  -0.00530   0.03016
   0.01244   0.00530   0.03016
  -0.38347  -0.28314  -0.01230
   0.09715   0.08868  -0.01429
   0.09715  -0.08868  -0.01429
  -0.38347   0.28314  -0.01230
 vibration    30
  -0.35547  -0.26690  -0.01007
   0.17713   0.13694  -0.00639
   0.17713  -0.13694  -0.00639
  -0.35547   0.26690  -0.01007
   0.00957   0.00455   0.02969
   0.00957  -0.00455   0.02969
   0.00689  -0.00399  -0.03286
   0.00689   0.00399  -0.03286
   0.00000  -0.00102  -0.00000
   0.00000   0.00102  -0.00000
  -0.00689  -0.00399   0.03286
  -0.00689   0.00399   0.03286
  -0.00957   0.00455  -0.02969
  -0.00957  -0.00455  -0.02969
   0.35547   0.26690   0.01007
  -0.17713  -0.13694   0.00639
  -0.17713   0.13694   0.00639
   0.35547  -0.26690   0.01007
 vibration    31
  -0.00440   0.15429   0.01376
   0.38615   0.23538   0.02123
  -0.38615   0.23538  -0.02123
   0.00440   0.15429  -0.01376
  -0.04135  -0.02045  -0.02677
   0.04135  -0.02045   0.02677
  -0.11146   0.03484   0.00510
   0.11146   0.03484  -0.00510
  -0.00000  -0.09506   0.00000
   0.00000  -0.09506  -0.00000
   0.11146   0.03484  -0.00510
  -0.11146   0.03484   0.00510
   0.04135  -0.02045   0.02677
  -0.04135  -0.02045  -0.02677
  -0.00440   0.15429   0.01376
   0.38615   0.23538   0.02123
  -0.38615   0.23538  -0.02123
   0.00440   0.15429  -0.01376
 vibration    32
  -0.09452   0.09895   0.00770
   0.40572   0.25346   0.00578
  -0.40572   0.25346  -0.00578
   0.09452   0.09895  -0.00770
  -0.01951  -0.01430  -0.02401
   0.01951  -0.01430   0.02401
  -0.01924  -0.00854  -0.00422
   0.01924  -0.00854   0.00422
   0.03765  -0.00000   0.00087
  -0.03765  -0.00000  -0.00087
  -0.01924   0.00854  -0.00422
   0.01924   0.00854   0.00422
  -0.01951   0.01430  -0.02401
   0.01951   0.01430   0.02401
   0.09452  -0.09895  -0.00770
  -0.40572  -0.25346  -0.00578
   0.40572  -0.25346   0.00578
  -0.09452  -0.09895   0.00770
 vibration    33
   0.42552   0.12565   0.02360
  -0.19402  -0.09757   0.00855
   0.19402  -0.09757  -0.00855
  -0.42552   0.12565  -0.02360
  -0.05191  -0.00778   0.02607
   0.05191  -0.00778  -0.02607
  -0.03687   0.01064   0.01960
   0.03687   0.01064  -0.01960
  -0.00000  -0.01082  -0.00000
   0.00000  -0.01082   0.00000
   0.03687   0.01064  -0.01960
  -0.03687   0.01064   0.01960
   0.05191  -0.00778  -0.02607
  -0.05191  -0.00778   0.02607
   0.42552   0.12565   0.02360
  -0.19402  -0.09757   0.00855
   0.19402  -0.09757  -0.00855
  -0.42552   0.12565  -0.02360
 vibration    34
   0.44313   0.20159   0.03143
   0.00609   0.04107   0.00874
  -0.00609   0.04107  -0.00874
  -0.44313   0.20159  -0.03143
  -0.06262  -0.00464   0.01729
   0.06262  -0.00464  -0.01729
  -0.04824  -0.03170   0.02100
   0.04824  -0.03170  -0.02100
  -0.06619   0.00000  -0.00292
   0.06619   0.00000   0.00292
  -0.04824   0.03170   0.02100
   0.04824   0.03170  -0.02100
  -0.06262   0.00464   0.01729
   0.06262   0.00464  -0.01729
  -0.44313  -0.20159  -0.03143
  -0.00609  -0.04107  -0.00874
   0.00609  -0.04107   0.00874
   0.44313  -0.20159   0.03143
 vibration    35
  -0.32562  -0.11582  -0.02356
   0.07176   0.01541   0.03104
  -0.07176   0.01541  -0.03104
   0.32562  -0.11582   0.02356
   0.12928   0.08535  -0.02448
  -0.12928   0.08535   0.02448
  -0.15015  -0.17852   0.00722
   0.15015  -0.17852  -0.00722
  -0.29860  -0.00000   0.00381
   0.29860  -0.00000  -0.00381
  -0.15015   0.17852   0.00722
   0.15015   0.17852  -0.00722
   0.12928  -0.08535  -0.02448
  -0.12928  -0.08535   0.02448
   0.32562   0.11582   0.02356
  -0.07176  -0.01541  -0.03104
   0.07176  -0.01541   0.03104
  -0.32562   0.11582  -0.02356
 vibration    36
   0.14895   0.13711   0.03512
   0.38809   0.21304   0.01157
   0.38809  -0.21304   0.01157
   0.14895  -0.13711   0.03512
  -0.06633  -0.07861   0.00058
  -0.06633   0.07861   0.00058
   0.03024   0.01158  -0.00450
   0.03024  -0.01158  -0.00450
   0.00000   0.00125  -0.00000
   0.00000  -0.00125  -0.00000
  -0.03024   0.01158   0.00450
  -0.03024  -0.01158   0.00450
   0.06633  -0.07861  -0.00058
   0.06633   0.07861  -0.00058
  -0.14895  -0.13711  -0.03512
  -0.38809  -0.21304  -0.01157
  -0.38809   0.21304  -0.01157
  -0.14895   0.13711  -0.03512
 vibration    37
   0.19924   0.17841   0.02219
   0.29938   0.21984   0.00239
  -0.29938   0.21984  -0.00239
  -0.19924   0.17841  -0.02219
  -0.02235   0.00993  -0.00266
   0.02235   0.00993   0.00266
   0.02698  -0.14033   0.00816
  -0.02698  -0.14033  -0.00816
   0.00000   0.19454   0.00000
   0.00000   0.19454  -0.00000
  -0.02698  -0.14033  -0.00816
   0.02698  -0.14033   0.00816
   0.02235   0.00993   0.00266
  -0.02235   0.00993  -0.00266
   0.19924   0.17841   0.02219
   0.29938   0.21984   0.00239
  -0.29938   0.21984  -0.00239
  -0.19924   0.17841  -0.02219
 vibration    38
   0.11533   0.14399   0.04453
   0.38711   0.21331  -0.00882
   0.38711  -0.21331  -0.00882
   0.11533  -0.14399   0.04453
  -0.06660  -0.09532   0.00434
  -0.06660   0.09532   0.00434
   0.03398   0.06025  -0.00759
   0.03398  -0.06025  -0.00759
  -0.01826   0.00000   0.00018
  -0.01826   0.00000   0.00018
   0.03398  -0.06025  -0.00759
   0.03398   0.06025  -0.00759
  -0.06660   0.09532   0.00434
  -0.06660  -0.09532   0.00434
   0.11533   0.14399   0.04453
   0.38711   0.21331  -0.00882
   0.38711  -0.21331  -0.00882
   0.11533  -0.14399   0.04453
 vibration    39
   0.13350   0.17233   0.03037
   0.22282   0.22089  -0.08745
  -0.22282   0.22089   0.08745
  -0.13350   0.17233  -0.03037
  -0.11724  -0.06969   0.00573
   0.11724  -0.06969  -0.00573
   0.25057   0.09087  -0.01158
  -0.25057   0.09087   0.01158
  -0.00000  -0.10642   0.00000
  -0.00000  -0.10642   0.00000
  -0.25057   0.09087   0.01158
   0.25057   0.09087  -0.01158
   0.11724  -0.06969  -0.00573
  -0.11724  -0.06969   0.00573
   0.13350   0.17233   0.03037
   0.22282   0.22089  -0.08745
  -0.22282   0.22089   0.08745
  -0.13350   0.17233  -0.03037
 vibration    40
  -0.21572   0.19961   0.07886
  -0.21708  -0.04180  -0.24295
  -0.21708   0.04180  -0.24295
  -0.21572  -0.19961   0.07886
   0.05506  -0.05160   0.01406
   0.05506   0.05160   0.01406
  -0.08615   0.16386   0.00104
  -0.08615  -0.16386   0.00104
   0.13666  -0.00000  -0.00218
   0.13666  -0.00000  -0.00218
  -0.08615  -0.16386   0.00104
  -0.08615   0.16386   0.00104
   0.05506   0.05160   0.01406
   0.05506  -0.05160   0.01406
  -0.21572   0.19961   0.07886
  -0.21708  -0.04180  -0.24295
  -0.21708   0.04180  -0.24295
  -0.21572  -0.19961   0.07886
 vibration    41
  -0.18632   0.27773   0.08989
  -0.10214   0.13269  -0.31671
  -0.10214  -0.13269  -0.31671
  -0.18632  -0.27773   0.08989
   0.02488  -0.02313   0.01754
   0.02488   0.02313   0.01754
  -0.00314   0.00587   0.00174
  -0.00314  -0.00587   0.00174
  -0.00000  -0.02070  -0.00000
  -0.00000   0.02070   0.00000
   0.00314   0.00587  -0.00174
   0.00314  -0.00587  -0.00174
  -0.02488  -0.02313  -0.01754
  -0.02488   0.02313  -0.01754
   0.18632  -0.27773  -0.08989
   0.10214  -0.13269   0.31671
   0.10214   0.13269   0.31671
   0.18632   0.27773  -0.08989
 vibration    42
  -0.15979   0.27736   0.08412
  -0.06989   0.17273  -0.31437
  -0.06989  -0.17273  -0.31437
  -0.15979  -0.27736   0.08412
   0.01504  -0.00603   0.01639
   0.01504   0.00603   0.01639
   0.02649  -0.06819   0.00297
   0.02649   0.06819   0.00297
  -0.04522   0.00000  -0.00023
  -0.04522  -0.00000  -0.00023
   0.02649   0.06819   0.00297
   0.02649  -0.06819   0.00297
   0.01504   0.00603   0.01639
   0.01504  -0.00603   0.01639
  -0.15979   0.27736   0.08412
  -0.06989   0.17273  -0.31437
  -0.06989  -0.17273  -0.31437
  -0.15979  -0.27736   0.08412
 vibration    43
   0.13541  -0.27947  -0.09244
   0.15890  -0.09611   0.32959
  -0.15890  -0.09611  -0.32959
  -0.13541  -0.27947   0.09244
  -0.02063   0.02907  -0.02054
   0.02063   0.02907   0.02054
   0.01151   0.00520  -0.00567
  -0.01151   0.00520   0.00567
   0.00000  -0.00547   0.00000
  -0.00000  -0.00547  -0.00000
  -0.01151   0.00520   0.00567
   0.01151   0.00520  -0.00567
   0.02063   0.02907   0.02054
  -0.02063   0.02907  -0.02054
   0.13541  -0.27947  -0.09244
   0.15890  -0.09611   0.32959
  -0.15890  -0.09611  -0.32959
  -0.13541  -0.27947   0.09244
 vibration    44
  -0.13261   0.28206   0.09273
  -0.14859   0.10504  -0.33082
   0.14859   0.10504   0.33082
   0.13261   0.28206  -0.09273
   0.01740  -0.03020   0.02060
  -0.01740  -0.03020  -0.02060
  -0.00103  -0.00425   0.00470
   0.00103  -0.00425  -0.00470
  -0.00543  -0.00000  -0.00118
   0.00543  -0.00000   0.00118
  -0.00103   0.00425   0.00470
   0.00103   0.00425  -0.00470
   0.01740   0.03020   0.02060
  -0.01740   0.03020  -0.02060
   0.13261  -0.28206  -0.09273
   0.14859  -0.10504   0.33082
  -0.14859  -0.10504  -0.33082
  -0.13261  -0.28206   0.09273
 vibration    45
  -0.00876   0.11553   0.03176
  -0.00497   0.10616  -0.12664
  -0.00497  -0.10616  -0.12664
  -0.00876  -0.11553   0.03176
  -0.00394   0.02823   0.00102
  -0.00394  -0.02823   0.00102
   0.07132  -0.29146   0.01190
   0.07132   0.29146   0.01190
  -0.00000   0.48424   0.00000
   0.00000  -0.48424  -0.00000
  -0.07132  -0.29146  -0.01190
  -0.07132   0.29146  -0.01190
   0.00394   0.02823  -0.00102
   0.00394  -0.02823  -0.00102
   0.00876  -0.11553  -0.03176
   0.00497  -0.10616   0.12664
   0.00497   0.10616   0.12664
   0.00876   0.11553  -0.03176
 vibration    46
   0.01667   0.02787  -0.00399
   0.19825   0.16675  -0.01862
  -0.19825   0.16675   0.01862
  -0.01667   0.02787   0.00399
  -0.05003  -0.00829  -0.00490
   0.05003  -0.00829   0.00490
   0.35675  -0.08996  -0.01046
  -0.35675  -0.08996   0.01046
  -0.29464  -0.00000   0.00248
   0.29464   0.00000  -0.00248
   0.35675   0.08996  -0.01046
  -0.35675   0.08996   0.01046
  -0.05003   0.00829  -0.00490
   0.05003   0.00829   0.00490
  -0.01667  -0.02787   0.00399
  -0.19825  -0.16675   0.01862
   0.19825  -0.16675  -0.01862
   0.01667  -0.02787  -0.00399
 vibration    47
  -0.03195   0.11039  -0.48208
  -0.02257   0.03308   0.03584
   0.02257   0.03308  -0.03584
   0.03195   0.11039   0.48208
   0.00531  -0.01139   0.03668
  -0.00531  -0.01139  -0.03668
  -0.00104  -0.00062   0.00042
   0.00104  -0.00062  -0.00042
   0.00000  -0.00005   0.00000
  -0.00000  -0.00005  -0.00000
   0.00104  -0.00062  -0.00042
  -0.00104  -0.00062   0.00042
  -0.00531  -0.01139  -0.03668
   0.00531  -0.01139   0.03668
  -0.03195   0.11039  -0.48208
  -0.02257   0.03308   0.03584
   0.02257   0.03308  -0.03584
   0.03195   0.11039   0.48208
 vibration    48
  -0.03196   0.11061  -0.48237
  -0.02087   0.03087   0.03414
   0.02087   0.03087  -0.03414
   0.03196   0.11061   0.48237
   0.00522  -0.01112   0.03683
  -0.00522  -0.01112  -0.03683
  -0.00075  -0.00099   0.00053
   0.00075  -0.00099  -0.00053
  -0.00086  -0.00000  -0.00012
   0.00086  -0.00000   0.00012
  -0.00075   0.00099   0.00053
   0.00075   0.00099  -0.00053
   0.00522   0.01112   0.03683
  -0.00522   0.01112  -0.03683
   0.03196  -0.11061   0.48237
   0.02087  -0.03087  -0.03414
  -0.02087  -0.03087   0.03414
  -0.03196  -0.11061  -0.48237
 vibration    49
   0.02962  -0.10660   0.47505
   0.04566  -0.06960  -0.06093
   0.04566   0.06960  -0.06093
   0.02962   0.10660   0.47505
  -0.00660   0.01470  -0.03443
  -0.00660  -0.01470  -0.03443
  -0.00006   0.00105  -0.00025
  -0.00006  -0.00105  -0.00025
  -0.00000  -0.00128  -0.00000
  -0.00000   0.00128  -0.00000
   0.00006   0.00105   0.00025
   0.00006  -0.00105   0.00025
   0.00660   0.01470   0.03443
   0.00660  -0.01470   0.03443
  -0.02962   0.10660  -0.47505
  -0.04566   0.06960   0.06093
  -0.04566  -0.06960   0.06093
  -0.02962  -0.10660  -0.47505
 vibration    50
  -0.02968   0.10650  -0.47505
  -0.04589   0.06959   0.06095
  -0.04589  -0.06959   0.06095
  -0.02968  -0.10650  -0.47505
   0.00661  -0.01470   0.03438
   0.00661   0.01470   0.03438
  -0.00007  -0.00070   0.00038
  -0.00007   0.00070   0.00038
  -0.00037   0.00000  -0.00005
  -0.00037  -0.00000  -0.00005