
     Program PHONON v.5.0.2 (svn rev. 10600) starts on  6Jul2014 at 15: 5: 5 

     This program is part of the open-source Quantum ESPRESSO suite
     for quantum simulation of materials; please cite
         "P. Giannozzi et al., J. Phys.:Condens. Matter 21 395502 (2009);
          URL http://www.quantum-espresso.org", 
     in publications or presentations arising from this work. More details at
     http://www.quantum-espresso.org/quote

     Parallel version (MPI), running on     8 processors
     K-points division:     npool     =       2
     R & G space division:  proc/nbgrp/npool/nimage =       4

   Info: using nr1, nr2, nr3 values from input

   Info: using nr1s, nr2s, nr3s values from input

     IMPORTANT: XC functional enforced from input :
     Exchange-correlation      = SLA  PW   PBE  PBE ( 1  4  3  4 0)
     Any further DFT definition will be discarded
     Please, verify this is what you really want

               file H.pbe-vbc.UPF: wavefunction(s)  0S renormalized

     Parallelization info
     --------------------
     sticks:   dense  smooth     PW     G-vecs:    dense   smooth      PW
     Min         510     510    145                19326    19326    2918
     Max         511     511    146                19327    19327    2919
     Sum        2043    2043    581                77307    77307   11675


     Calculation of q =    0.0000000   0.0000000   0.0000000

                                                                                

     bravais-lattice index     =            8
     lattice parameter (alat)  =       8.0518  a.u.
     unit-cell volume          =    2760.3463 (a.u.)^3
     number of atoms/cell      =           18
     number of atomic types    =            2
     kinetic-energy cut-off    =      35.0000  Ry
     charge density cut-off    =     140.0000  Ry
     convergence threshold     =      1.0E-14
     beta                      =       0.7000
     number of iterations used =            4
     Exchange-correlation      = SLA  PW   PBE  PBE ( 1  4  3  4 0)


     celldm(1)=    8.05183  celldm(2)=    2.81634  celldm(3)=    1.87756
     celldm(4)=    0.00000  celldm(5)=    0.00000  celldm(6)=    0.00000

     crystal axes: (cart. coord. in units of alat)
               a(1) = (  1.0000  0.0000  0.0000 )  
               a(2) = (  0.0000  2.8163  0.0000 )  
               a(3) = (  0.0000  0.0000  1.8776 )  

     reciprocal axes: (cart. coord. in units 2 pi/alat)
               b(1) = (  1.0000  0.0000  0.0000 )  
               b(2) = (  0.0000  0.3551  0.0000 )  
               b(3) = (  0.0000  0.0000  0.5326 )  


     Atoms inside the unit cell: 

     Cartesian axes

     site n.  atom      mass           positions (alat units)
        1     H    1.0079   tau(    1) = (    0.18954   -0.65616    0.30215  )
        2     H    1.0079   tau(    2) = (    0.29094   -0.78580   -0.07738  )
        3     H    1.0079   tau(    3) = (    0.70906   -0.78580    0.07738  )
        4     H    1.0079   tau(    4) = (    0.81046   -0.65616   -0.30215  )
        5     C   12.0107   tau(    5) = (    0.17076   -0.59603    0.04921  )
        6     C   12.0107   tau(    6) = (    0.82924   -0.59603   -0.04921  )
        7     C   12.0107   tau(    7) = (    0.33580   -0.28557    0.00312  )
        8     C   12.0107   tau(    8) = (    0.66420   -0.28557   -0.00312  )
        9     C   12.0107   tau(    9) = (    0.17497    0.00000   -0.00017  )
       10     C   12.0107   tau(   10) = (    0.82503    0.00000    0.00017  )
       11     C   12.0107   tau(   11) = (    0.33580    0.28557    0.00312  )
       12     C   12.0107   tau(   12) = (    0.66420    0.28557   -0.00312  )
       13     C   12.0107   tau(   13) = (    0.17076    0.59603    0.04921  )
       14     C   12.0107   tau(   14) = (    0.82924    0.59603   -0.04921  )
       15     H    1.0079   tau(   15) = (   -0.18954    0.65616   -0.30215  )
       16     H    1.0079   tau(   16) = (   -0.29094    0.78580    0.07738  )
       17     H    1.0079   tau(   17) = (   -0.70906    0.78580   -0.07738  )
       18     H    1.0079   tau(   18) = (   -0.81046    0.65616    0.30215  )

     Computing dynamical matrix for 
                    q = (   0.0000000   0.0000000   0.0000000 )

      5 Sym.Ops. (with q -> -q+G )


     G cutoff =  229.9098  (  19326 G-vectors)     FFT grid: ( 32, 90, 60)
     number of k points=     2
                       cart. coord. in units 2pi/alat
        k(    1) = (   0.0000000   0.0000000   0.0000000), wk =   1.0000000
        k(    2) = (  -0.5000000   0.0000000   0.0000000), wk =   1.0000000

     PseudoPot. # 1 for C  read from file:
     ../PP_LIBRARY/C.pbe-mt_gipaw.UPF
     MD5 check sum: 5ac2f21f2c440b14befe521540822c15
     Pseudo is Norm-conserving, Zval =  4.0
     Generated by new atomic code, or converted to UPF format
     Using radial grid of 1073 points,  1 beta functions with: 
                l(1) =   0

     PseudoPot. # 2 for H  read from file:
     ../PP_LIBRARY/H.pbe-vbc.UPF
     MD5 check sum: 0ad67d0772b4eb71cad78a7d32695431
     Pseudo is Norm-conserving, Zval =  1.0
     Generated by new atomic code, or converted to UPF format
     Using radial grid of  325 points,  0 beta functions with: 

     Mode symmetry, C_2h (2/m)  point group:


     Electric field:
     Dielectric constant
     Born effective charges as d Force / d E
     Raman tensor


     Atomic displacements:
     There are  54 irreducible representations

     Representation     1      1 modes -A_g  To be done

     Representation     2      1 modes -A_g  To be done

     Representation     3      1 modes -A_g  To be done

     Representation     4      1 modes -A_g  To be done

     Representation     5      1 modes -A_g  To be done

     Representation     6      1 modes -A_g  To be done

     Representation     7      1 modes -A_g  To be done

     Representation     8      1 modes -A_g  To be done

     Representation     9      1 modes -A_g  To be done

     Representation    10      1 modes -A_g  To be done

     Representation    11      1 modes -A_g  To be done

     Representation    12      1 modes -A_g  To be done

     Representation    13      1 modes -A_g  To be done

     Representation    14      1 modes -A_g  To be done

     Representation    15      1 modes -B_g  To be done

     Representation    16      1 modes -B_g  To be done

     Representation    17      1 modes -B_g  To be done

     Representation    18      1 modes -B_g  To be done

     Representation    19      1 modes -B_g  To be done

     Representation    20      1 modes -B_g  To be done

     Representation    21      1 modes -B_g  To be done

     Representation    22      1 modes -B_g  To be done

     Representation    23      1 modes -B_g  To be done

     Representation    24      1 modes -B_g  To be done

     Representation    25      1 modes -B_g  To be done

     Representation    26      1 modes -B_g  To be done

     Representation    27      1 modes -B_g  To be done

     Representation    28      1 modes -A_u  To be done

     Representation    29      1 modes -A_u  To be done

     Representation    30      1 modes -A_u  To be done

     Representation    31      1 modes -A_u  To be done

     Representation    32      1 modes -A_u  To be done

     Representation    33      1 modes -A_u  To be done

     Representation    34      1 modes -A_u  To be done

     Representation    35      1 modes -A_u  To be done

     Representation    36      1 modes -A_u  To be done

     Representation    37      1 modes -A_u  To be done

     Representation    38      1 modes -A_u  To be done

     Representation    39      1 modes -A_u  To be done

     Representation    40      1 modes -A_u  To be done

     Representation    41      1 modes -B_u  To be done

     Representation    42      1 modes -B_u  To be done

     Representation    43      1 modes -B_u  To be done

     Representation    44      1 modes -B_u  To be done

     Representation    45      1 modes -B_u  To be done

     Representation    46      1 modes -B_u  To be done

     Representation    47      1 modes -B_u  To be done

     Representation    48      1 modes -B_u  To be done

     Representation    49      1 modes -B_u  To be done

     Representation    50      1 modes -B_u  To be done

     Representation    51      1 modes -B_u  To be done

     Representation    52      1 modes -B_u  To be done

     Representation    53      1 modes -B_u  To be done

     Representation    54      1 modes -B_u  To be done



     Alpha used in Ewald sum =   1.3000
     PHONON       :    18.14s CPU        18.35s WALL


     Electric Fields Calculation

      iter #   1 total cpu time :    43.3 secs   av.it.:   7.0
      thresh= 1.000E-02 alpha_mix =  0.700 |ddv_scf|^2 =  7.993E-06

      iter #   2 total cpu time :    56.8 secs   av.it.:  11.7
      thresh= 2.827E-04 alpha_mix =  0.700 |ddv_scf|^2 =  1.809E-05

      iter #   3 total cpu time :    72.2 secs   av.it.:  10.7
      thresh= 4.253E-04 alpha_mix =  0.700 |ddv_scf|^2 =  1.054E-06

      iter #   4 total cpu time :    83.0 secs   av.it.:  11.3
      thresh= 1.027E-04 alpha_mix =  0.700 |ddv_scf|^2 =  1.312E-08

      iter #   5 total cpu time :    91.8 secs   av.it.:  12.3
      thresh= 1.145E-05 alpha_mix =  0.700 |ddv_scf|^2 =  3.923E-10

      iter #   6 total cpu time :   102.1 secs   av.it.:  12.3
      thresh= 1.981E-06 alpha_mix =  0.700 |ddv_scf|^2 =  1.613E-10

      iter #   7 total cpu time :   115.0 secs   av.it.:  12.3
      thresh= 1.270E-06 alpha_mix =  0.700 |ddv_scf|^2 =  2.665E-11

      iter #   8 total cpu time :   130.4 secs   av.it.:  12.0
      thresh= 5.162E-07 alpha_mix =  0.700 |ddv_scf|^2 =  1.162E-12

      iter #   9 total cpu time :   149.0 secs   av.it.:  12.7
      thresh= 1.078E-07 alpha_mix =  0.700 |ddv_scf|^2 =  4.122E-13

      iter #  10 total cpu time :   161.2 secs   av.it.:  12.0
      thresh= 6.420E-08 alpha_mix =  0.700 |ddv_scf|^2 =  1.283E-14

      iter #  11 total cpu time :   177.7 secs   av.it.:  12.3
      thresh= 1.133E-08 alpha_mix =  0.700 |ddv_scf|^2 =  6.971E-15

     End of electric fields calculation

          Dielectric constant in cartesian axis 

          (       5.439036351       0.000000000       0.006814561 )
          (       0.000000000       1.647925041       0.000000000 )
          (       0.006814565       0.000000000       1.315488701 )

          Effective charges (d Force / dE) in cartesian axis

           atom      1   H  
      Ex  (        0.13750       -0.04306       -0.09884 )
      Ey  (       -0.05449       -0.01840        0.13551 )
      Ez  (       -0.02181        0.04541       -0.11637 )
           atom      2   H  
      Ex  (        0.02972        0.07312        0.06012 )
      Ey  (        0.08860       -0.07157       -0.09836 )
      Ez  (        0.02809       -0.04016        0.01349 )
           atom      3   H  
      Ex  (        0.02972       -0.07312        0.06012 )
      Ey  (       -0.08860       -0.07157        0.09836 )
      Ez  (        0.02809        0.04016        0.01349 )
           atom      4   H  
      Ex  (        0.13750        0.04306       -0.09884 )
      Ey  (        0.05449       -0.01840       -0.13551 )
      Ez  (       -0.02181       -0.04541       -0.11637 )
           atom      5   C  
      Ex  (        0.11475       -0.13022        0.07693 )
      Ey  (       -0.05394        0.07819        0.01895 )
      Ez  (        0.01078        0.00936        0.20302 )
           atom      6   C  
      Ex  (        0.11475        0.13022        0.07693 )
      Ey  (        0.05394        0.07819       -0.01895 )
      Ez  (        0.01078       -0.00936        0.20302 )
           atom      7   C  
      Ex  (       -0.99188        0.89930       -0.13315 )
      Ey  (        0.18241        0.09115       -0.18231 )
      Ez  (       -0.01899       -0.06364       -0.04132 )
           atom      8   C  
      Ex  (       -0.99188       -0.89930       -0.13315 )
      Ey  (       -0.18241        0.09115        0.18231 )
      Ez  (       -0.01899        0.06364       -0.04132 )
           atom      9   C  
      Ex  (       -0.53360        0.00000        0.18900 )
      Ey  (        0.00000       -0.08304       -0.00000 )
      Ez  (        0.00564       -0.00000       -0.01696 )
           atom     10   C  
      Ex  (       -0.53360        0.00000        0.18900 )
      Ey  (        0.00000       -0.08304        0.00000 )
      Ez  (        0.00564        0.00000       -0.01696 )
           atom     11   C  
      Ex  (       -0.99188       -0.89930       -0.13315 )
      Ey  (       -0.18241        0.09115        0.18231 )
      Ez  (       -0.01899        0.06364       -0.04132 )
           atom     12   C  
      Ex  (       -0.99188        0.89930       -0.13315 )
      Ey  (        0.18241        0.09115       -0.18231 )
      Ez  (       -0.01899       -0.06364       -0.04132 )
           atom     13   C  
      Ex  (        0.11475        0.13022        0.07693 )
      Ey  (        0.05394        0.07819       -0.01895 )
      Ez  (        0.01078       -0.00936        0.20302 )
           atom     14   C  
      Ex  (        0.11475       -0.13022        0.07693 )
      Ey  (       -0.05394        0.07819        0.01895 )
      Ez  (        0.01078        0.00936        0.20302 )
           atom     15   H  
      Ex  (        0.13750       -0.04306       -0.09884 )
      Ey  (       -0.05449       -0.01840        0.13551 )
      Ez  (       -0.02181        0.04541       -0.11637 )
           atom     16   H  
      Ex  (        0.02972        0.07312        0.06012 )
      Ey  (        0.08860       -0.07157       -0.09836 )
      Ez  (        0.02809       -0.04016        0.01349 )
           atom     17   H  
      Ex  (        0.02972       -0.07312        0.06012 )
      Ey  (       -0.08860       -0.07157        0.09836 )
      Ez  (        0.02809        0.04016        0.01349 )
           atom     18   H  
      Ex  (        0.13750        0.04306       -0.09884 )
      Ey  (        0.05449       -0.01840       -0.13551 )
      Ez  (       -0.02181       -0.04541       -0.11637 )

     Calling punch_plot_e
     Writing on file  gar-w_03-2H-ph.fildrho                                                                                                                                                                                                                                          

     Computing Pc [DH,Drho] |psi> 

     Derivative coefficient:  0.001000    Threshold: 1.00E-12
     Non-scf  u_k: avg # of iterations = 20.6
     Non-scf Du_k: avg # of iterations = 33.2

          Dielectric constant from finite-differences

          (       5.437087599       0.000000000       0.006816755 )
          (       0.000000000       1.647870652       0.000000000 )
          (       0.006816755       0.000000000       1.315454091 )

     Computing Second order response 


      iter #   1   av.it.:   9.5
      thresh= 1.000E-02 alpha_mix =  0.700 |ddv_scf|^2 =  9.502E-05


      iter #   2   av.it.:  11.0
      thresh= 9.748E-04 alpha_mix =  0.700 |ddv_scf|^2 =  3.051E-05


      iter #   3   av.it.:  11.0
      thresh= 5.523E-04 alpha_mix =  0.700 |ddv_scf|^2 =  1.360E-05


      iter #   4   av.it.:  10.2
      thresh= 3.688E-04 alpha_mix =  0.700 |ddv_scf|^2 =  4.557E-08


      iter #   5   av.it.:  12.7
      thresh= 2.135E-05 alpha_mix =  0.700 |ddv_scf|^2 =  4.442E-09


      iter #   6   av.it.:  12.0
      thresh= 6.665E-06 alpha_mix =  0.700 |ddv_scf|^2 =  8.570E-11


      iter #   7   av.it.:  12.8
      thresh= 9.257E-07 alpha_mix =  0.700 |ddv_scf|^2 =  1.399E-11


      iter #   8   av.it.:  12.5
      thresh= 3.740E-07 alpha_mix =  0.700 |ddv_scf|^2 =  2.197E-12


      iter #   9   av.it.:  12.7
      thresh= 1.482E-07 alpha_mix =  0.700 |ddv_scf|^2 =  6.584E-14


      iter #  10   av.it.:  12.7
      thresh= 2.566E-08 alpha_mix =  0.700 |ddv_scf|^2 =  4.027E-14


      iter #  11   av.it.:  11.7
      thresh= 2.007E-08 alpha_mix =  0.700 |ddv_scf|^2 =  7.733E-16

          Raman tensor (au^-1) in cartesian axis 

           atom      1
          (      -0.052512668      -0.002139362       0.004038059 )
          (      -0.002139362       0.002597815      -0.001450067 )
          (       0.004038059      -0.001450067      -0.003359450 )

          (      -0.005098588      -0.000261375      -0.000542630 )
          (      -0.000261375      -0.020378420       0.011287069 )
          (      -0.000542630       0.011287069      -0.009430476 )

          (       0.044448423       0.001272739       0.013682339 )
          (       0.001272739       0.035724151      -0.024849336 )
          (       0.013682339      -0.024849336       0.063552756 )

           atom      2
          (       0.051700037      -0.010958291      -0.005212945 )
          (      -0.010958291       0.011500201       0.002865978 )
          (      -0.005212945       0.002865978       0.000673311 )

          (      -0.000541353       0.012293921       0.005140195 )
          (       0.012293921      -0.038116464      -0.010921708 )
          (       0.005140195      -0.010921708       0.000196716 )

          (      -0.011022049       0.006116042       0.005285448 )
          (       0.006116042      -0.012173783      -0.013207299 )
          (       0.005285448      -0.013207299       0.002659052 )

           atom      3
          (      -0.051700037      -0.010958291       0.005212945 )
          (      -0.010958291      -0.011500201       0.002865978 )
          (       0.005212945       0.002865978      -0.000673311 )

          (      -0.000541353      -0.012293921       0.005140195 )
          (      -0.012293921      -0.038116464       0.010921708 )
          (       0.005140195       0.010921708       0.000196716 )

          (       0.011022049       0.006116042      -0.005285448 )
          (       0.006116042       0.012173783      -0.013207299 )
          (      -0.005285448      -0.013207299      -0.002659052 )

           atom      4
          (       0.052512668      -0.002139362      -0.004038059 )
          (      -0.002139362      -0.002597815      -0.001450067 )
          (      -0.004038059      -0.001450067       0.003359450 )

          (      -0.005098588       0.000261375      -0.000542630 )
          (       0.000261375      -0.020378420      -0.011287069 )
          (      -0.000542630      -0.011287069      -0.009430476 )

          (      -0.044448423       0.001272739      -0.013682339 )
          (       0.001272739      -0.035724151      -0.024849336 )
          (      -0.013682339      -0.024849336      -0.063552756 )

           atom      5
          (       0.119382377      -0.004849338       0.010276816 )
          (      -0.004849338      -0.004600516      -0.006037527 )
          (       0.010276816      -0.006037527      -0.005432268 )

          (       0.158551104      -0.019678874       0.002210939 )
          (      -0.019678874       0.047819930      -0.002936150 )
          (       0.002210939      -0.002936150       0.019738803 )

          (      -0.007723521      -0.008857088      -0.018127681 )
          (      -0.008857088      -0.020604088       0.026226444 )
          (      -0.018127681       0.026226444      -0.041151638 )

           atom      6
          (      -0.119382377      -0.004849338      -0.010276816 )
          (      -0.004849338       0.004600516      -0.006037527 )
          (      -0.010276816      -0.006037527       0.005432268 )

          (       0.158551104       0.019678874       0.002210939 )
          (       0.019678874       0.047819930       0.002936150 )
          (       0.002210939       0.002936150       0.019738803 )

          (       0.007723521      -0.008857088       0.018127681 )
          (      -0.008857088       0.020604088       0.026226444 )
          (       0.018127681       0.026226444       0.041151638 )

           atom      7
          (       2.423252402      -0.066815550       0.021690123 )
          (      -0.066815550      -0.031172465       0.001569483 )
          (       0.021690123       0.001569483      -0.000220250 )

          (      -2.142255438       0.067543861      -0.024843402 )
          (       0.067543861      -0.064193599       0.008047475 )
          (      -0.024843402       0.008047475      -0.033787888 )

          (       0.152571966       0.004499925       0.013469790 )
          (       0.004499925      -0.004860859      -0.008555472 )
          (       0.013469790      -0.008555472      -0.022824686 )

           atom      8
          (      -2.423252402      -0.066815550      -0.021690123 )
          (      -0.066815550       0.031172465       0.001569483 )
          (      -0.021690123       0.001569483       0.000220250 )

          (      -2.142255438      -0.067543861      -0.024843402 )
          (      -0.067543861      -0.064193599      -0.008047475 )
          (      -0.024843402      -0.008047475      -0.033787888 )

          (      -0.152571966       0.004499925      -0.013469790 )
          (       0.004499925       0.004860859      -0.008555472 )
          (      -0.013469790      -0.008555472       0.022824686 )

           atom      9
          (      -6.049859319       0.000000000      -0.040969878 )
          (       0.000000000      -0.063898234       0.000000000 )
          (      -0.040969878       0.000000000      -0.034795828 )

          (       0.000000000      -0.147600408       0.000000000 )
          (      -0.147600408       0.000000000      -0.009185401 )
          (       0.000000000      -0.009185401       0.000000000 )

          (       0.151986962       0.000000000      -0.108356578 )
          (       0.000000000      -0.009287129       0.000000000 )
          (      -0.108356578       0.000000000      -0.041636534 )

           atom     10
          (       6.049859319       0.000000000       0.040969878 )
          (       0.000000000       0.063898234       0.000000000 )
          (       0.040969878       0.000000000       0.034795828 )

          (       0.000000000       0.147600408       0.000000000 )
          (       0.147600408       0.000000000       0.009185401 )
          (       0.000000000       0.009185401       0.000000000 )

          (      -0.151986962       0.000000000       0.108356578 )
          (       0.000000000       0.009287129       0.000000000 )
          (       0.108356578       0.000000000       0.041636534 )

           atom     11
          (       2.423252402       0.066815550       0.021690123 )
          (       0.066815550      -0.031172465      -0.001569483 )
          (       0.021690123      -0.001569483      -0.000220250 )

          (       2.142255438       0.067543861       0.024843402 )
          (       0.067543861       0.064193599       0.008047475 )
          (       0.024843402       0.008047475       0.033787888 )

          (       0.152571966      -0.004499925       0.013469790 )
          (      -0.004499925      -0.004860859       0.008555472 )
          (       0.013469790       0.008555472      -0.022824686 )

           atom     12
          (      -2.423252402       0.066815550      -0.021690123 )
          (       0.066815550       0.031172465      -0.001569483 )
          (      -0.021690123      -0.001569483       0.000220250 )

          (       2.142255438      -0.067543861       0.024843402 )
          (      -0.067543861       0.064193599      -0.008047475 )
          (       0.024843402      -0.008047475       0.033787888 )

          (      -0.152571966      -0.004499925      -0.013469790 )
          (      -0.004499925       0.004860859       0.008555472 )
          (      -0.013469790       0.008555472       0.022824686 )

           atom     13
          (       0.119382377       0.004849338       0.010276816 )
          (       0.004849338      -0.004600516       0.006037527 )
          (       0.010276816       0.006037527      -0.005432268 )

          (      -0.158551104      -0.019678874      -0.002210939 )
          (      -0.019678874      -0.047819930      -0.002936150 )
          (      -0.002210939      -0.002936150      -0.019738803 )

          (      -0.007723521       0.008857088      -0.018127681 )
          (       0.008857088      -0.020604088      -0.026226444 )
          (      -0.018127681      -0.026226444      -0.041151638 )

           atom     14
          (      -0.119382377       0.004849338      -0.010276816 )
          (       0.004849338       0.004600516       0.006037527 )
          (      -0.010276816       0.006037527       0.005432268 )

          (      -0.158551104       0.019678874      -0.002210939 )
          (       0.019678874      -0.047819930       0.002936150 )
          (      -0.002210939       0.002936150      -0.019738803 )

          (       0.007723521       0.008857088       0.018127681 )
          (       0.008857088       0.020604088      -0.026226444 )
          (       0.018127681      -0.026226444       0.041151638 )

           atom     15
          (       0.052512668       0.002139362      -0.004038059 )
          (       0.002139362      -0.002597815       0.001450067 )
          (      -0.004038059       0.001450067       0.003359450 )

          (       0.005098588       0.000261375       0.000542630 )
          (       0.000261375       0.020378420      -0.011287069 )
          (       0.000542630      -0.011287069       0.009430476 )

          (      -0.044448423      -0.001272739      -0.013682339 )
          (      -0.001272739      -0.035724151       0.024849336 )
          (      -0.013682339       0.024849336      -0.063552756 )

           atom     16
          (      -0.051700037       0.010958291       0.005212945 )
          (       0.010958291      -0.011500201      -0.002865978 )
          (       0.005212945      -0.002865978      -0.000673311 )

          (       0.000541353      -0.012293921      -0.005140195 )
          (      -0.012293921       0.038116464       0.010921708 )
          (      -0.005140195       0.010921708      -0.000196716 )

          (       0.011022049      -0.006116042      -0.005285448 )
          (      -0.006116042       0.012173783       0.013207299 )
          (      -0.005285448       0.013207299      -0.002659052 )

           atom     17
          (       0.051700037       0.010958291      -0.005212945 )
          (       0.010958291       0.011500201      -0.002865978 )
          (      -0.005212945      -0.002865978       0.000673311 )

          (       0.000541353       0.012293921      -0.005140195 )
          (       0.012293921       0.038116464      -0.010921708 )
          (      -0.005140195      -0.010921708      -0.000196716 )

          (      -0.011022049      -0.006116042       0.005285448 )
          (      -0.006116042      -0.012173783       0.013207299 )
          (       0.005285448       0.013207299       0.002659052 )

           atom     18
          (      -0.052512668       0.002139362       0.004038059 )
          (       0.002139362       0.002597815       0.001450067 )
          (       0.004038059       0.001450067      -0.003359450 )

          (       0.005098588      -0.000261375       0.000542630 )
          (      -0.000261375       0.020378420       0.011287069 )
          (       0.000542630       0.011287069       0.009430476 )

          (       0.044448423      -0.001272739       0.013682339 )
          (      -0.001272739       0.035724151       0.024849336 )
          (       0.013682339       0.024849336       0.063552756 )


     Raman tensor (A^2)

     atom #    1    pol.  1
     -0.323013043314E+01     -0.131595259750E+00      0.248386842382E+00
     -0.131595259750E+00      0.159795345939E+00     -0.891957449266E-01
      0.248386842382E+00     -0.891957449266E-01     -0.206644635653E+00
     atom #    1    pol.  2
     -0.313621522787E+00     -0.160775619437E-01     -0.333779665496E-01
     -0.160775619437E-01     -0.125350621144E+01      0.694284020338E+00
     -0.333779665496E-01      0.694284020338E+00     -0.580082268235E+00
     atom #    1    pol.  3
      0.273408697766E+01      0.782880330852E-01      0.841620555312E+00
      0.782880330852E-01      0.219744436059E+01     -0.152851872002E+01
      0.841620555312E+00     -0.152851872002E+01      0.390922223058E+01
     atom #    2    pol.  1
      0.318014428587E+01     -0.674060378478E+00     -0.320655841706E+00
     -0.674060378478E+00      0.707394030038E+00      0.176290471792E+00
     -0.320655841706E+00      0.176290471792E+00      0.414163279749E-01
     atom #    2    pol.  2
     -0.332994236033E-01      0.756216933005E+00      0.316180878327E+00
      0.756216933005E+00     -0.234459902887E+01     -0.671810095594E+00
      0.316180878327E+00     -0.671810095594E+00      0.121002564440E-01
     atom #    2    pol.  3
     -0.677982205377E+00      0.376206640462E+00      0.325115594092E+00
      0.376206640462E+00     -0.748827086096E+00     -0.812400140345E+00
      0.325115594092E+00     -0.812400140345E+00      0.163562132422E+00
     atom #    3    pol.  1
     -0.318014428587E+01     -0.674060378478E+00      0.320655841706E+00
     -0.674060378478E+00     -0.707394030038E+00      0.176290471792E+00
      0.320655841706E+00      0.176290471792E+00     -0.414163279749E-01
     atom #    3    pol.  2
     -0.332994236033E-01     -0.756216933005E+00      0.316180878327E+00
     -0.756216933005E+00     -0.234459902887E+01      0.671810095594E+00
      0.316180878327E+00      0.671810095594E+00      0.121002564440E-01
     atom #    3    pol.  3
      0.677982205377E+00      0.376206640462E+00     -0.325115594092E+00
      0.376206640462E+00      0.748827086096E+00     -0.812400140345E+00
     -0.325115594092E+00     -0.812400140345E+00     -0.163562132422E+00
     atom #    4    pol.  1
      0.323013043314E+01     -0.131595259750E+00     -0.248386842382E+00
     -0.131595259750E+00     -0.159795345939E+00     -0.891957449266E-01
     -0.248386842382E+00     -0.891957449266E-01      0.206644635653E+00
     atom #    4    pol.  2
     -0.313621522787E+00      0.160775619437E-01     -0.333779665496E-01
      0.160775619437E-01     -0.125350621144E+01     -0.694284020338E+00
     -0.333779665496E-01     -0.694284020338E+00     -0.580082268235E+00
     atom #    4    pol.  3
     -0.273408697766E+01      0.782880330852E-01     -0.841620555312E+00
      0.782880330852E-01     -0.219744436059E+01     -0.152851872002E+01
     -0.841620555312E+00     -0.152851872002E+01     -0.390922223058E+01
     atom #    5    pol.  1
      0.734338323229E+01     -0.298289827230E+00      0.632141834909E+00
     -0.298289827230E+00     -0.282984425028E+00     -0.371377060915E+00
      0.632141834909E+00     -0.371377060915E+00     -0.334146705395E+00
     atom #    5    pol.  2
      0.975270849326E+01     -0.121047609149E+01      0.135998035582E+00
     -0.121047609149E+01      0.294147329232E+01     -0.180606835403E+00
      0.135998035582E+00     -0.180606835403E+00      0.121416243467E+01
     atom #    5    pol.  3
     -0.475085014545E+00     -0.544812360537E+00     -0.111505994525E+01
     -0.544812360537E+00     -0.126738732593E+01      0.161322663940E+01
     -0.111505994525E+01      0.161322663940E+01     -0.253129698148E+01
     atom #    6    pol.  1
     -0.734338323229E+01     -0.298289827230E+00     -0.632141834909E+00
     -0.298289827230E+00      0.282984425028E+00     -0.371377060915E+00
     -0.632141834909E+00     -0.371377060915E+00      0.334146705395E+00
     atom #    6    pol.  2
      0.975270849326E+01      0.121047609149E+01      0.135998035582E+00
      0.121047609149E+01      0.294147329232E+01      0.180606835403E+00
      0.135998035582E+00      0.180606835403E+00      0.121416243467E+01
     atom #    6    pol.  3
      0.475085014545E+00     -0.544812360537E+00      0.111505994525E+01
     -0.544812360537E+00      0.126738732593E+01      0.161322663940E+01
      0.111505994525E+01      0.161322663940E+01      0.253129698148E+01
     atom #    7    pol.  1
      0.149057771616E+03     -0.410992144454E+01      0.133419095199E+01
     -0.410992144454E+01     -0.191746358218E+01      0.965411895566E-01
      0.133419095199E+01      0.965411895566E-01     -0.135479278551E-01
     atom #    7    pol.  2
     -0.131773240631E+03      0.415472091713E+01     -0.152815367784E+01
      0.415472091713E+01     -0.394864140669E+01      0.495011834438E+00
     -0.152815367784E+01      0.495011834438E+00     -0.207834201101E+01
     atom #    7    pol.  3
      0.938492299642E+01      0.276796887060E+00      0.828546314044E+00
      0.276796887060E+00     -0.298998488675E+00     -0.526259500720E+00
      0.828546314044E+00     -0.526259500720E+00     -0.140397953865E+01
     atom #    8    pol.  1
     -0.149057771616E+03     -0.410992144454E+01     -0.133419095199E+01
     -0.410992144454E+01      0.191746358218E+01      0.965411895566E-01
     -0.133419095199E+01      0.965411895566E-01      0.135479278551E-01
     atom #    8    pol.  2
     -0.131773240631E+03     -0.415472091713E+01     -0.152815367784E+01
     -0.415472091713E+01     -0.394864140669E+01     -0.495011834438E+00
     -0.152815367784E+01     -0.495011834438E+00     -0.207834201101E+01
     atom #    8    pol.  3
     -0.938492299642E+01      0.276796887060E+00     -0.828546314044E+00
      0.276796887060E+00      0.298998488675E+00     -0.526259500720E+00
     -0.828546314044E+00     -0.526259500720E+00      0.140397953865E+01
     atom #    9    pol.  1
     -0.372135625606E+03      0.000000000000E+00     -0.252011663189E+01
      0.000000000000E+00     -0.393047310470E+01      0.000000000000E+00
     -0.252011663189E+01      0.000000000000E+00     -0.214034187169E+01
     atom #    9    pol.  2
      0.000000000000E+00     -0.907911527430E+01      0.000000000000E+00
     -0.907911527430E+01      0.000000000000E+00     -0.565007346754E+00
      0.000000000000E+00     -0.565007346754E+00      0.000000000000E+00
     atom #    9    pol.  3
      0.934893857779E+01      0.000000000000E+00     -0.666517032074E+01
      0.000000000000E+00     -0.571264781269E+00      0.000000000000E+00
     -0.666517032074E+01      0.000000000000E+00     -0.256112359488E+01
     atom #   10    pol.  1
      0.372135625606E+03      0.000000000000E+00      0.252011663189E+01
      0.000000000000E+00      0.393047310470E+01      0.000000000000E+00
      0.252011663189E+01      0.000000000000E+00      0.214034187169E+01
     atom #   10    pol.  2
      0.000000000000E+00      0.907911527430E+01      0.000000000000E+00
      0.907911527430E+01      0.000000000000E+00      0.565007346754E+00
      0.000000000000E+00      0.565007346754E+00      0.000000000000E+00
     atom #   10    pol.  3
     -0.934893857779E+01      0.000000000000E+00      0.666517032074E+01
      0.000000000000E+00      0.571264781269E+00      0.000000000000E+00
      0.666517032074E+01      0.000000000000E+00      0.256112359488E+01
     atom #   11    pol.  1
      0.149057771616E+03      0.410992144454E+01      0.133419095199E+01
      0.410992144454E+01     -0.191746358218E+01     -0.965411895566E-01
      0.133419095199E+01     -0.965411895566E-01     -0.135479278551E-01
     atom #   11    pol.  2
      0.131773240631E+03      0.415472091713E+01      0.152815367784E+01
      0.415472091713E+01      0.394864140669E+01      0.495011834438E+00
      0.152815367784E+01      0.495011834438E+00      0.207834201101E+01
     atom #   11    pol.  3
      0.938492299642E+01     -0.276796887060E+00      0.828546314044E+00
     -0.276796887060E+00     -0.298998488675E+00      0.526259500720E+00
      0.828546314044E+00      0.526259500720E+00     -0.140397953865E+01
     atom #   12    pol.  1
     -0.149057771616E+03      0.410992144454E+01     -0.133419095199E+01
      0.410992144454E+01      0.191746358218E+01     -0.965411895566E-01
     -0.133419095199E+01     -0.965411895566E-01      0.135479278551E-01
     atom #   12    pol.  2
      0.131773240631E+03     -0.415472091713E+01      0.152815367784E+01
     -0.415472091713E+01      0.394864140669E+01     -0.495011834438E+00
      0.152815367784E+01     -0.495011834438E+00      0.207834201101E+01
     atom #   12    pol.  3
     -0.938492299642E+01     -0.276796887060E+00     -0.828546314044E+00
     -0.276796887060E+00      0.298998488675E+00      0.526259500720E+00
     -0.828546314044E+00      0.526259500720E+00      0.140397953865E+01
     atom #   13    pol.  1
      0.734338323229E+01      0.298289827230E+00      0.632141834909E+00
      0.298289827230E+00     -0.282984425028E+00      0.371377060915E+00
      0.632141834909E+00      0.371377060915E+00     -0.334146705395E+00
     atom #   13    pol.  2
     -0.975270849326E+01     -0.121047609149E+01     -0.135998035582E+00
     -0.121047609149E+01     -0.294147329232E+01     -0.180606835403E+00
     -0.135998035582E+00     -0.180606835403E+00     -0.121416243467E+01
     atom #   13    pol.  3
     -0.475085014545E+00      0.544812360537E+00     -0.111505994525E+01
      0.544812360537E+00     -0.126738732593E+01     -0.161322663940E+01
     -0.111505994525E+01     -0.161322663940E+01     -0.253129698148E+01
     atom #   14    pol.  1
     -0.734338323229E+01      0.298289827230E+00     -0.632141834909E+00
      0.298289827230E+00      0.282984425028E+00      0.371377060915E+00
     -0.632141834909E+00      0.371377060915E+00      0.334146705395E+00
     atom #   14    pol.  2
     -0.975270849326E+01      0.121047609149E+01     -0.135998035582E+00
      0.121047609149E+01     -0.294147329232E+01      0.180606835403E+00
     -0.135998035582E+00      0.180606835403E+00     -0.121416243467E+01
     atom #   14    pol.  3
      0.475085014545E+00      0.544812360537E+00      0.111505994525E+01
      0.544812360537E+00      0.126738732593E+01     -0.161322663940E+01
      0.111505994525E+01     -0.161322663940E+01      0.253129698148E+01
     atom #   15    pol.  1
      0.323013043314E+01      0.131595259750E+00     -0.248386842382E+00
      0.131595259750E+00     -0.159795345939E+00      0.891957449266E-01
     -0.248386842382E+00      0.891957449266E-01      0.206644635653E+00
     atom #   15    pol.  2
      0.313621522787E+00      0.160775619437E-01      0.333779665496E-01
      0.160775619437E-01      0.125350621144E+01     -0.694284020338E+00
      0.333779665496E-01     -0.694284020338E+00      0.580082268235E+00
     atom #   15    pol.  3
     -0.273408697766E+01     -0.782880330852E-01     -0.841620555312E+00
     -0.782880330852E-01     -0.219744436059E+01      0.152851872002E+01
     -0.841620555312E+00      0.152851872002E+01     -0.390922223058E+01
     atom #   16    pol.  1
     -0.318014428587E+01      0.674060378478E+00      0.320655841706E+00
      0.674060378478E+00     -0.707394030038E+00     -0.176290471792E+00
      0.320655841706E+00     -0.176290471792E+00     -0.414163279749E-01
     atom #   16    pol.  2
      0.332994236033E-01     -0.756216933005E+00     -0.316180878327E+00
     -0.756216933005E+00      0.234459902887E+01      0.671810095594E+00
     -0.316180878327E+00      0.671810095594E+00     -0.121002564440E-01
     atom #   16    pol.  3
      0.677982205377E+00     -0.376206640462E+00     -0.325115594092E+00
     -0.376206640462E+00      0.748827086096E+00      0.812400140345E+00
     -0.325115594092E+00      0.812400140345E+00     -0.163562132422E+00
     atom #   17    pol.  1
      0.318014428587E+01      0.674060378478E+00     -0.320655841706E+00
      0.674060378478E+00      0.707394030038E+00     -0.176290471792E+00
     -0.320655841706E+00     -0.176290471792E+00      0.414163279749E-01
     atom #   17    pol.  2
      0.332994236033E-01      0.756216933005E+00     -0.316180878327E+00
      0.756216933005E+00      0.234459902887E+01     -0.671810095594E+00
     -0.316180878327E+00     -0.671810095594E+00     -0.121002564440E-01
     atom #   17    pol.  3
     -0.677982205377E+00     -0.376206640462E+00      0.325115594092E+00
     -0.376206640462E+00     -0.748827086096E+00      0.812400140345E+00
      0.325115594092E+00      0.812400140345E+00      0.163562132422E+00
     atom #   18    pol.  1
     -0.323013043314E+01      0.131595259750E+00      0.248386842382E+00
      0.131595259750E+00      0.159795345939E+00      0.891957449266E-01
      0.248386842382E+00      0.891957449266E-01     -0.206644635653E+00
     atom #   18    pol.  2
      0.313621522787E+00     -0.160775619437E-01      0.333779665496E-01
     -0.160775619437E-01      0.125350621144E+01      0.694284020338E+00
      0.333779665496E-01      0.694284020338E+00      0.580082268235E+00
     atom #   18    pol.  3
      0.273408697766E+01     -0.782880330852E-01      0.841620555312E+00
     -0.782880330852E-01      0.219744436059E+01      0.152851872002E+01
      0.841620555312E+00      0.152851872002E+01      0.390922223058E+01


     Representation #  1 mode #   1

     Self-consistent Calculation

      iter #   1 total cpu time :   921.2 secs   av.it.:   5.5
      thresh= 1.000E-02 alpha_mix =  0.700 |ddv_scf|^2 =  2.660E-07

      iter #   2 total cpu time :   923.9 secs   av.it.:  12.0
      thresh= 5.158E-05 alpha_mix =  0.700 |ddv_scf|^2 =  1.879E-07

      iter #   3 total cpu time :   926.9 secs   av.it.:  11.0
      thresh= 4.334E-05 alpha_mix =  0.700 |ddv_scf|^2 =  7.186E-09

      iter #   4 total cpu time :   930.3 secs   av.it.:  10.5
      thresh= 8.477E-06 alpha_mix =  0.700 |ddv_scf|^2 =  4.569E-10

      iter #   5 total cpu time :   933.3 secs   av.it.:  11.0
      thresh= 2.137E-06 alpha_mix =  0.700 |ddv_scf|^2 =  9.192E-12

      iter #   6 total cpu time :   938.6 secs   av.it.:  11.5
      thresh= 3.032E-07 alpha_mix =  0.700 |ddv_scf|^2 =  1.087E-12

      iter #   7 total cpu time :   942.9 secs   av.it.:  11.5
      thresh= 1.043E-07 alpha_mix =  0.700 |ddv_scf|^2 =  1.882E-13

      iter #   8 total cpu time :   947.7 secs   av.it.:  11.0
      thresh= 4.338E-08 alpha_mix =  0.700 |ddv_scf|^2 =  5.377E-15

     End of self-consistent calculation

     Convergence has been achieved 


     Representation #  2 mode #   2

     Self-consistent Calculation

      iter #   1 total cpu time :   951.9 secs   av.it.:   4.0
      thresh= 1.000E-02 alpha_mix =  0.700 |ddv_scf|^2 =  2.680E-08

      iter #   2 total cpu time :   955.6 secs   av.it.:  11.5
      thresh= 1.637E-05 alpha_mix =  0.700 |ddv_scf|^2 =  1.946E-08

      iter #   3 total cpu time :   961.8 secs   av.it.:  10.5
      thresh= 1.395E-05 alpha_mix =  0.700 |ddv_scf|^2 =  3.366E-10

      iter #   4 total cpu time :   965.7 secs   av.it.:  10.5
      thresh= 1.835E-06 alpha_mix =  0.700 |ddv_scf|^2 =  2.624E-11

      iter #   5 total cpu time :   970.5 secs   av.it.:  11.5
      thresh= 5.122E-07 alpha_mix =  0.700 |ddv_scf|^2 =  1.067E-12

      iter #   6 total cpu time :   974.7 secs   av.it.:  11.5
      thresh= 1.033E-07 alpha_mix =  0.700 |ddv_scf|^2 =  3.055E-13

      iter #   7 total cpu time :   978.5 secs   av.it.:  11.0
      thresh= 5.527E-08 alpha_mix =  0.700 |ddv_scf|^2 =  1.845E-14

      iter #   8 total cpu time :   981.6 secs   av.it.:  11.0
      thresh= 1.358E-08 alpha_mix =  0.700 |ddv_scf|^2 =  9.203E-16

     End of self-consistent calculation

     Convergence has been achieved 


     Representation #  3 mode #   3

     Self-consistent Calculation

      iter #   1 total cpu time :   984.4 secs   av.it.:   5.0
      thresh= 1.000E-02 alpha_mix =  0.700 |ddv_scf|^2 =  9.083E-08

      iter #   2 total cpu time :   987.6 secs   av.it.:  12.0
      thresh= 3.014E-05 alpha_mix =  0.700 |ddv_scf|^2 =  5.625E-08

      iter #   3 total cpu time :   991.7 secs   av.it.:  11.0
      thresh= 2.372E-05 alpha_mix =  0.700 |ddv_scf|^2 =  4.421E-09

      iter #   4 total cpu time :   995.0 secs   av.it.:  10.5
      thresh= 6.649E-06 alpha_mix =  0.700 |ddv_scf|^2 =  2.312E-10

      iter #   5 total cpu time :   998.6 secs   av.it.:  11.0
      thresh= 1.520E-06 alpha_mix =  0.700 |ddv_scf|^2 =  7.510E-12

      iter #   6 total cpu time :  1003.6 secs   av.it.:  11.0
      thresh= 2.740E-07 alpha_mix =  0.700 |ddv_scf|^2 =  2.826E-13

      iter #   7 total cpu time :  1009.0 secs   av.it.:  11.0
      thresh= 5.316E-08 alpha_mix =  0.700 |ddv_scf|^2 =  8.042E-15

     End of self-consistent calculation

     Convergence has been achieved 


     Representation #  4 mode #   4

     Self-consistent Calculation

      iter #   1 total cpu time :  1011.7 secs   av.it.:   4.0
      thresh= 1.000E-02 alpha_mix =  0.700 |ddv_scf|^2 =  6.319E-09

      iter #   2 total cpu time :  1016.2 secs   av.it.:  11.5
      thresh= 7.949E-06 alpha_mix =  0.700 |ddv_scf|^2 =  5.527E-09

      iter #   3 total cpu time :  1021.2 secs   av.it.:  10.5
      thresh= 7.435E-06 alpha_mix =  0.700 |ddv_scf|^2 =  4.755E-11

      iter #   4 total cpu time :  1025.6 secs   av.it.:  11.5
      thresh= 6.896E-07 alpha_mix =  0.700 |ddv_scf|^2 =  1.505E-11

      iter #   5 total cpu time :  1031.3 secs   av.it.:  11.0
      thresh= 3.879E-07 alpha_mix =  0.700 |ddv_scf|^2 =  1.394E-12

      iter #   6 total cpu time :  1037.3 secs   av.it.:  11.0
      thresh= 1.181E-07 alpha_mix =  0.700 |ddv_scf|^2 =  6.885E-14

      iter #   7 total cpu time :  1042.9 secs   av.it.:  11.5
      thresh= 2.624E-08 alpha_mix =  0.700 |ddv_scf|^2 =  1.482E-14

      iter #   8 total cpu time :  1046.3 secs   av.it.:  11.0
      thresh= 1.218E-08 alpha_mix =  0.700 |ddv_scf|^2 =  2.778E-16

     End of self-consistent calculation

     Convergence has been achieved 


     Representation #  5 mode #   5

     Self-consistent Calculation

      iter #   1 total cpu time :  1048.6 secs   av.it.:   6.0
      thresh= 1.000E-02 alpha_mix =  0.700 |ddv_scf|^2 =  1.522E-06

      iter #   2 total cpu time :  1052.1 secs   av.it.:  11.0
      thresh= 1.234E-04 alpha_mix =  0.700 |ddv_scf|^2 =  1.265E-06

      iter #   3 total cpu time :  1056.2 secs   av.it.:  10.0
      thresh= 1.125E-04 alpha_mix =  0.700 |ddv_scf|^2 =  3.045E-09

      iter #   4 total cpu time :  1061.0 secs   av.it.:  11.0
      thresh= 5.518E-06 alpha_mix =  0.700 |ddv_scf|^2 =  5.464E-10

      iter #   5 total cpu time :  1065.4 secs   av.it.:  11.0
      thresh= 2.338E-06 alpha_mix =  0.700 |ddv_scf|^2 =  1.791E-11

      iter #   6 total cpu time :  1069.7 secs   av.it.:  11.5
      thresh= 4.232E-07 alpha_mix =  0.700 |ddv_scf|^2 =  2.108E-12

      iter #   7 total cpu time :  1074.3 secs   av.it.:  11.5
      thresh= 1.452E-07 alpha_mix =  0.700 |ddv_scf|^2 =  2.178E-13

      iter #   8 total cpu time :  1081.4 secs   av.it.:  11.0
      thresh= 4.667E-08 alpha_mix =  0.700 |ddv_scf|^2 =  9.527E-15

     End of self-consistent calculation

     Convergence has been achieved 


     Representation #  6 mode #   6

     Self-consistent Calculation

      iter #   1 total cpu time :  1087.0 secs   av.it.:   5.0
      thresh= 1.000E-02 alpha_mix =  0.700 |ddv_scf|^2 =  1.504E-07

      iter #   2 total cpu time :  1091.6 secs   av.it.:  11.5
      thresh= 3.878E-05 alpha_mix =  0.700 |ddv_scf|^2 =  1.052E-07

      iter #   3 total cpu time :  1097.7 secs   av.it.:  11.0
      thresh= 3.244E-05 alpha_mix =  0.700 |ddv_scf|^2 =  6.578E-09

      iter #   4 total cpu time :  1102.6 secs   av.it.:  10.5
      thresh= 8.110E-06 alpha_mix =  0.700 |ddv_scf|^2 =  2.483E-10

      iter #   5 total cpu time :  1106.9 secs   av.it.:  11.0
      thresh= 1.576E-06 alpha_mix =  0.700 |ddv_scf|^2 =  1.015E-11

      iter #   6 total cpu time :  1112.4 secs   av.it.:  11.0
      thresh= 3.186E-07 alpha_mix =  0.700 |ddv_scf|^2 =  2.534E-13

      iter #   7 total cpu time :  1118.7 secs   av.it.:  11.0
      thresh= 5.034E-08 alpha_mix =  0.700 |ddv_scf|^2 =  3.435E-14

      iter #   8 total cpu time :  1123.8 secs   av.it.:  11.5
      thresh= 1.853E-08 alpha_mix =  0.700 |ddv_scf|^2 =  4.370E-15

     End of self-consistent calculation

     Convergence has been achieved 


     Representation #  7 mode #   7

     Self-consistent Calculation

      iter #   1 total cpu time :  1128.1 secs   av.it.:   6.0
      thresh= 1.000E-02 alpha_mix =  0.700 |ddv_scf|^2 =  1.290E-06

      iter #   2 total cpu time :  1131.4 secs   av.it.:  11.5
      thresh= 1.136E-04 alpha_mix =  0.700 |ddv_scf|^2 =  1.724E-06

      iter #   3 total cpu time :  1135.1 secs   av.it.:  10.5
      thresh= 1.313E-04 alpha_mix =  0.700 |ddv_scf|^2 =  2.351E-09

      iter #   4 total cpu time :  1138.8 secs   av.it.:  11.5
      thresh= 4.849E-06 alpha_mix =  0.700 |ddv_scf|^2 =  1.577E-10

      iter #   5 total cpu time :  1142.5 secs   av.it.:  11.0
      thresh= 1.256E-06 alpha_mix =  0.700 |ddv_scf|^2 =  1.580E-11

      iter #   6 total cpu time :  1147.1 secs   av.it.:  11.0
      thresh= 3.975E-07 alpha_mix =  0.700 |ddv_scf|^2 =  9.304E-13

      iter #   7 total cpu time :  1150.9 secs   av.it.:  11.5
      thresh= 9.646E-08 alpha_mix =  0.700 |ddv_scf|^2 =  1.975E-13

      iter #   8 total cpu time :  1154.4 secs   av.it.:  11.5
      thresh= 4.444E-08 alpha_mix =  0.700 |ddv_scf|^2 =  1.027E-14

      iter #   9 total cpu time :  1158.5 secs   av.it.:  10.5
      thresh= 1.013E-08 alpha_mix =  0.700 |ddv_scf|^2 =  1.705E-16

     End of self-consistent calculation

     Convergence has been achieved 


     Representation #  8 mode #   8

     Self-consistent Calculation

      iter #   1 total cpu time :  1161.2 secs   av.it.:   4.0
      thresh= 1.000E-02 alpha_mix =  0.700 |ddv_scf|^2 =  5.897E-08

      iter #   2 total cpu time :  1164.8 secs   av.it.:  11.5
      thresh= 2.428E-05 alpha_mix =  0.700 |ddv_scf|^2 =  2.013E-08

      iter #   3 total cpu time :  1170.1 secs   av.it.:  10.5
      thresh= 1.419E-05 alpha_mix =  0.700 |ddv_scf|^2 =  2.031E-10

      iter #   4 total cpu time :  1173.9 secs   av.it.:  11.0
      thresh= 1.425E-06 alpha_mix =  0.700 |ddv_scf|^2 =  1.342E-11

      iter #   5 total cpu time :  1177.6 secs   av.it.:  11.0
      thresh= 3.663E-07 alpha_mix =  0.700 |ddv_scf|^2 =  2.561E-12

      iter #   6 total cpu time :  1181.7 secs   av.it.:  10.5
      thresh= 1.600E-07 alpha_mix =  0.700 |ddv_scf|^2 =  6.386E-14

      iter #   7 total cpu time :  1184.9 secs   av.it.:  10.5
      thresh= 2.527E-08 alpha_mix =  0.700 |ddv_scf|^2 =  4.526E-15

     End of self-consistent calculation

     Convergence has been achieved 


     Representation #  9 mode #   9

     Self-consistent Calculation

      iter #   1 total cpu time :  1188.4 secs   av.it.:   5.0
      thresh= 1.000E-02 alpha_mix =  0.700 |ddv_scf|^2 =  1.558E-07

      iter #   2 total cpu time :  1193.4 secs   av.it.:  11.5
      thresh= 3.947E-05 alpha_mix =  0.700 |ddv_scf|^2 =  8.978E-08

      iter #   3 total cpu time :  1197.4 secs   av.it.:  10.5
      thresh= 2.996E-05 alpha_mix =  0.700 |ddv_scf|^2 =  6.179E-10

      iter #   4 total cpu time :  1202.6 secs   av.it.:  11.0
      thresh= 2.486E-06 alpha_mix =  0.700 |ddv_scf|^2 =  4.187E-11

      iter #   5 total cpu time :  1209.6 secs   av.it.:  11.5
      thresh= 6.470E-07 alpha_mix =  0.700 |ddv_scf|^2 =  6.901E-12

      iter #   6 total cpu time :  1214.2 secs   av.it.:  11.0
      thresh= 2.627E-07 alpha_mix =  0.700 |ddv_scf|^2 =  1.083E-12

      iter #   7 total cpu time :  1220.6 secs   av.it.:  11.0
      thresh= 1.041E-07 alpha_mix =  0.700 |ddv_scf|^2 =  1.703E-13

      iter #   8 total cpu time :  1228.0 secs   av.it.:  11.5
      thresh= 4.127E-08 alpha_mix =  0.700 |ddv_scf|^2 =  2.045E-15

     End of self-consistent calculation

     Convergence has been achieved 


     Representation # 10 mode #  10

     Self-consistent Calculation

      iter #   1 total cpu time :  1232.5 secs   av.it.:   5.0
      thresh= 1.000E-02 alpha_mix =  0.700 |ddv_scf|^2 =  1.035E-07

      iter #   2 total cpu time :  1237.1 secs   av.it.:  11.5
      thresh= 3.218E-05 alpha_mix =  0.700 |ddv_scf|^2 =  1.181E-07

      iter #   3 total cpu time :  1243.3 secs   av.it.:  10.5
      thresh= 3.437E-05 alpha_mix =  0.700 |ddv_scf|^2 =  1.056E-09

      iter #   4 total cpu time :  1249.0 secs   av.it.:  11.0
      thresh= 3.250E-06 alpha_mix =  0.700 |ddv_scf|^2 =  1.820E-11

      iter #   5 total cpu time :  1253.7 secs   av.it.:  11.5
      thresh= 4.267E-07 alpha_mix =  0.700 |ddv_scf|^2 =  3.373E-12

      iter #   6 total cpu time :  1258.5 secs   av.it.:  11.5
      thresh= 1.837E-07 alpha_mix =  0.700 |ddv_scf|^2 =  1.383E-13

      iter #   7 total cpu time :  1262.0 secs   av.it.:  11.5
      thresh= 3.719E-08 alpha_mix =  0.700 |ddv_scf|^2 =  2.859E-15

     End of self-consistent calculation

     Convergence has been achieved 


     Representation # 11 mode #  11

     Self-consistent Calculation

      iter #   1 total cpu time :  1264.5 secs   av.it.:   4.0
      thresh= 1.000E-02 alpha_mix =  0.700 |ddv_scf|^2 =  5.106E-08

      iter #   2 total cpu time :  1267.9 secs   av.it.:  11.0
      thresh= 2.260E-05 alpha_mix =  0.700 |ddv_scf|^2 =  2.594E-08

      iter #   3 total cpu time :  1272.7 secs   av.it.:  10.5
      thresh= 1.611E-05 alpha_mix =  0.700 |ddv_scf|^2 =  2.094E-10

      iter #   4 total cpu time :  1275.6 secs   av.it.:  10.5
      thresh= 1.447E-06 alpha_mix =  0.700 |ddv_scf|^2 =  2.625E-11

      iter #   5 total cpu time :  1278.2 secs   av.it.:  11.0
      thresh= 5.123E-07 alpha_mix =  0.700 |ddv_scf|^2 =  3.330E-13

      iter #   6 total cpu time :  1280.7 secs   av.it.:  11.0
      thresh= 5.771E-08 alpha_mix =  0.700 |ddv_scf|^2 =  5.898E-14

      iter #   7 total cpu time :  1283.2 secs   av.it.:  11.5
      thresh= 2.429E-08 alpha_mix =  0.700 |ddv_scf|^2 =  1.065E-14

      iter #   8 total cpu time :  1287.3 secs   av.it.:  11.0
      thresh= 1.032E-08 alpha_mix =  0.700 |ddv_scf|^2 =  2.787E-16

     End of self-consistent calculation

     Convergence has been achieved 


     Representation # 12 mode #  12

     Self-consistent Calculation

      iter #   1 total cpu time :  1292.4 secs   av.it.:   4.0
      thresh= 1.000E-02 alpha_mix =  0.700 |ddv_scf|^2 =  1.036E-08

      iter #   2 total cpu time :  1296.4 secs   av.it.:  11.5
      thresh= 1.018E-05 alpha_mix =  0.700 |ddv_scf|^2 =  2.758E-09

      iter #   3 total cpu time :  1300.3 secs   av.it.:  11.5
      thresh= 5.252E-06 alpha_mix =  0.700 |ddv_scf|^2 =  4.296E-10

      iter #   4 total cpu time :  1305.0 secs   av.it.:  10.5
      thresh= 2.073E-06 alpha_mix =  0.700 |ddv_scf|^2 =  2.912E-11

      iter #   5 total cpu time :  1308.3 secs   av.it.:  10.5
      thresh= 5.397E-07 alpha_mix =  0.700 |ddv_scf|^2 =  6.661E-13

      iter #   6 total cpu time :  1312.4 secs   av.it.:  11.5
      thresh= 8.162E-08 alpha_mix =  0.700 |ddv_scf|^2 =  4.551E-14

      iter #   7 total cpu time :  1317.0 secs   av.it.:  11.5
      thresh= 2.133E-08 alpha_mix =  0.700 |ddv_scf|^2 =  1.662E-14

      iter #   8 total cpu time :  1320.9 secs   av.it.:  11.0
      thresh= 1.289E-08 alpha_mix =  0.700 |ddv_scf|^2 =  6.616E-16

     End of self-consistent calculation

     Convergence has been achieved 


     Representation # 13 mode #  13

     Self-consistent Calculation

      iter #   1 total cpu time :  1324.3 secs   av.it.:   4.0
      thresh= 1.000E-02 alpha_mix =  0.700 |ddv_scf|^2 =  6.145E-09

      iter #   2 total cpu time :  1331.1 secs   av.it.:  11.5
      thresh= 7.839E-06 alpha_mix =  0.700 |ddv_scf|^2 =  1.991E-09

      iter #   3 total cpu time :  1338.0 secs   av.it.:  11.5
      thresh= 4.462E-06 alpha_mix =  0.700 |ddv_scf|^2 =  1.185E-10

      iter #   4 total cpu time :  1343.7 secs   av.it.:  11.0
      thresh= 1.088E-06 alpha_mix =  0.700 |ddv_scf|^2 =  7.427E-12

      iter #   5 total cpu time :  1348.8 secs   av.it.:  11.0
      thresh= 2.725E-07 alpha_mix =  0.700 |ddv_scf|^2 =  4.885E-13

      iter #   6 total cpu time :  1354.8 secs   av.it.:  11.5
      thresh= 6.989E-08 alpha_mix =  0.700 |ddv_scf|^2 =  3.495E-14

      iter #   7 total cpu time :  1361.6 secs   av.it.:  11.5
      thresh= 1.870E-08 alpha_mix =  0.700 |ddv_scf|^2 =  2.866E-14

      iter #   8 total cpu time :  1366.7 secs   av.it.:  11.0
      thresh= 1.693E-08 alpha_mix =  0.700 |ddv_scf|^2 =  3.839E-16

     End of self-consistent calculation

     Convergence has been achieved 


     Representation # 14 mode #  14

     Self-consistent Calculation

      iter #   1 total cpu time :  1370.4 secs   av.it.:   5.0
      thresh= 1.000E-02 alpha_mix =  0.700 |ddv_scf|^2 =  2.091E-07

      iter #   2 total cpu time :  1374.6 secs   av.it.:  11.5
      thresh= 4.572E-05 alpha_mix =  0.700 |ddv_scf|^2 =  1.161E-07

      iter #   3 total cpu time :  1378.4 secs   av.it.:  11.0
      thresh= 3.407E-05 alpha_mix =  0.700 |ddv_scf|^2 =  2.679E-09

      iter #   4 total cpu time :  1381.9 secs   av.it.:  11.0
      thresh= 5.176E-06 alpha_mix =  0.700 |ddv_scf|^2 =  4.113E-10

      iter #   5 total cpu time :  1386.1 secs   av.it.:  11.0
      thresh= 2.028E-06 alpha_mix =  0.700 |ddv_scf|^2 =  7.028E-12

      iter #   6 total cpu time :  1390.5 secs   av.it.:  11.5
      thresh= 2.651E-07 alpha_mix =  0.700 |ddv_scf|^2 =  3.022E-12

      iter #   7 total cpu time :  1395.6 secs   av.it.:  11.0
      thresh= 1.738E-07 alpha_mix =  0.700 |ddv_scf|^2 =  1.791E-13

      iter #   8 total cpu time :  1400.3 secs   av.it.:  11.0
      thresh= 4.232E-08 alpha_mix =  0.700 |ddv_scf|^2 =  7.203E-16

     End of self-consistent calculation

     Convergence has been achieved 


     Representation # 15 mode #  15

     Self-consistent Calculation

      iter #   1 total cpu time :  1404.3 secs   av.it.:   3.0
      thresh= 1.000E-02 alpha_mix =  0.700 |ddv_scf|^2 =  1.835E-09

      iter #   2 total cpu time :  1411.8 secs   av.it.:  11.5
      thresh= 4.283E-06 alpha_mix =  0.700 |ddv_scf|^2 =  2.298E-10

      iter #   3 total cpu time :  1416.0 secs   av.it.:  11.0
      thresh= 1.516E-06 alpha_mix =  0.700 |ddv_scf|^2 =  5.720E-12

      iter #   4 total cpu time :  1421.0 secs   av.it.:  11.5
      thresh= 2.392E-07 alpha_mix =  0.700 |ddv_scf|^2 =  1.831E-13

      iter #   5 total cpu time :  1425.8 secs   av.it.:  12.0
      thresh= 4.279E-08 alpha_mix =  0.700 |ddv_scf|^2 =  5.473E-14

      iter #   6 total cpu time :  1429.3 secs   av.it.:  11.5
      thresh= 2.340E-08 alpha_mix =  0.700 |ddv_scf|^2 =  2.071E-15

     End of self-consistent calculation

     Convergence has been achieved 


     Representation # 16 mode #  16

     Self-consistent Calculation

      iter #   1 total cpu time :  1433.6 secs   av.it.:   5.0
      thresh= 1.000E-02 alpha_mix =  0.700 |ddv_scf|^2 =  2.292E-07

      iter #   2 total cpu time :  1438.9 secs   av.it.:  11.5
      thresh= 4.788E-05 alpha_mix =  0.700 |ddv_scf|^2 =  6.509E-08

      iter #   3 total cpu time :  1443.9 secs   av.it.:  11.0
      thresh= 2.551E-05 alpha_mix =  0.700 |ddv_scf|^2 =  5.598E-10

      iter #   4 total cpu time :  1448.5 secs   av.it.:  11.5
      thresh= 2.366E-06 alpha_mix =  0.700 |ddv_scf|^2 =  3.075E-11

      iter #   5 total cpu time :  1452.0 secs   av.it.:  11.5
      thresh= 5.546E-07 alpha_mix =  0.700 |ddv_scf|^2 =  3.428E-12

      iter #   6 total cpu time :  1454.4 secs   av.it.:  11.5
      thresh= 1.852E-07 alpha_mix =  0.700 |ddv_scf|^2 =  5.967E-13

      iter #   7 total cpu time :  1458.1 secs   av.it.:  11.5
      thresh= 7.725E-08 alpha_mix =  0.700 |ddv_scf|^2 =  4.143E-15

     End of self-consistent calculation

     Convergence has been achieved 


     Representation # 17 mode #  17

     Self-consistent Calculation

      iter #   1 total cpu time :  1462.6 secs   av.it.:   4.0
      thresh= 1.000E-02 alpha_mix =  0.700 |ddv_scf|^2 =  3.658E-09

      iter #   2 total cpu time :  1466.8 secs   av.it.:  12.0
      thresh= 6.048E-06 alpha_mix =  0.700 |ddv_scf|^2 =  1.442E-09

      iter #   3 total cpu time :  1472.7 secs   av.it.:  11.5
      thresh= 3.798E-06 alpha_mix =  0.700 |ddv_scf|^2 =  3.648E-11

      iter #   4 total cpu time :  1476.9 secs   av.it.:  12.0
      thresh= 6.040E-07 alpha_mix =  0.700 |ddv_scf|^2 =  3.163E-12

      iter #   5 total cpu time :  1481.9 secs   av.it.:  11.5
      thresh= 1.779E-07 alpha_mix =  0.700 |ddv_scf|^2 =  4.012E-13

      iter #   6 total cpu time :  1486.4 secs   av.it.:  11.5
      thresh= 6.334E-08 alpha_mix =  0.700 |ddv_scf|^2 =  2.069E-14

      iter #   7 total cpu time :  1489.1 secs   av.it.:  11.0
      thresh= 1.439E-08 alpha_mix =  0.700 |ddv_scf|^2 =  5.014E-16

     End of self-consistent calculation

     Convergence has been achieved 


     Representation # 18 mode #  18

     Self-consistent Calculation

      iter #   1 total cpu time :  1492.3 secs   av.it.:   4.0
      thresh= 1.000E-02 alpha_mix =  0.700 |ddv_scf|^2 =  5.339E-09

      iter #   2 total cpu time :  1496.4 secs   av.it.:  12.0
      thresh= 7.307E-06 alpha_mix =  0.700 |ddv_scf|^2 =  1.688E-09

      iter #   3 total cpu time :  1501.6 secs   av.it.:  11.5
      thresh= 4.109E-06 alpha_mix =  0.700 |ddv_scf|^2 =  7.359E-11

      iter #   4 total cpu time :  1505.3 secs   av.it.:  11.5
      thresh= 8.578E-07 alpha_mix =  0.700 |ddv_scf|^2 =  3.515E-12

      iter #   5 total cpu time :  1509.4 secs   av.it.:  11.5
      thresh= 1.875E-07 alpha_mix =  0.700 |ddv_scf|^2 =  2.298E-13

      iter #   6 total cpu time :  1513.3 secs   av.it.:  12.0
      thresh= 4.794E-08 alpha_mix =  0.700 |ddv_scf|^2 =  2.191E-14

      iter #   7 total cpu time :  1516.6 secs   av.it.:  11.5
      thresh= 1.480E-08 alpha_mix =  0.700 |ddv_scf|^2 =  3.498E-16

     End of self-consistent calculation

     Convergence has been achieved 


     Representation # 19 mode #  19

     Self-consistent Calculation

      iter #   1 total cpu time :  1519.3 secs   av.it.:   5.0
      thresh= 1.000E-02 alpha_mix =  0.700 |ddv_scf|^2 =  5.615E-08

      iter #   2 total cpu time :  1523.1 secs   av.it.:  12.0
      thresh= 2.370E-05 alpha_mix =  0.700 |ddv_scf|^2 =  3.330E-08

      iter #   3 total cpu time :  1526.7 secs   av.it.:  11.5
      thresh= 1.825E-05 alpha_mix =  0.700 |ddv_scf|^2 =  5.144E-10

      iter #   4 total cpu time :  1530.7 secs   av.it.:  11.5
      thresh= 2.268E-06 alpha_mix =  0.700 |ddv_scf|^2 =  3.160E-11

      iter #   5 total cpu time :  1534.8 secs   av.it.:  11.5
      thresh= 5.622E-07 alpha_mix =  0.700 |ddv_scf|^2 =  1.754E-12

      iter #   6 total cpu time :  1538.2 secs   av.it.:  11.5
      thresh= 1.325E-07 alpha_mix =  0.700 |ddv_scf|^2 =  1.454E-13

      iter #   7 total cpu time :  1544.0 secs   av.it.:  11.5
      thresh= 3.813E-08 alpha_mix =  0.700 |ddv_scf|^2 =  1.712E-15

     End of self-consistent calculation

     Convergence has been achieved 


     Representation # 20 mode #  20

     Self-consistent Calculation

      iter #   1 total cpu time :  1546.4 secs   av.it.:   5.0
      thresh= 1.000E-02 alpha_mix =  0.700 |ddv_scf|^2 =  7.567E-08

      iter #   2 total cpu time :  1550.9 secs   av.it.:  12.0
      thresh= 2.751E-05 alpha_mix =  0.700 |ddv_scf|^2 =  3.881E-08

      iter #   3 total cpu time :  1554.5 secs   av.it.:  11.5
      thresh= 1.970E-05 alpha_mix =  0.700 |ddv_scf|^2 =  1.003E-09

      iter #   4 total cpu time :  1558.4 secs   av.it.:  11.5
      thresh= 3.168E-06 alpha_mix =  0.700 |ddv_scf|^2 =  2.083E-11

      iter #   5 total cpu time :  1561.8 secs   av.it.:  11.0
      thresh= 4.564E-07 alpha_mix =  0.700 |ddv_scf|^2 =  1.251E-12

      iter #   6 total cpu time :  1565.9 secs   av.it.:  11.5
      thresh= 1.118E-07 alpha_mix =  0.700 |ddv_scf|^2 =  4.690E-14

      iter #   7 total cpu time :  1569.6 secs   av.it.:  12.0
      thresh= 2.166E-08 alpha_mix =  0.700 |ddv_scf|^2 =  5.617E-15

     End of self-consistent calculation

     Convergence has been achieved 


     Representation # 21 mode #  21

     Self-consistent Calculation

      iter #   1 total cpu time :  1572.5 secs   av.it.:   4.0
      thresh= 1.000E-02 alpha_mix =  0.700 |ddv_scf|^2 =  5.086E-09

      iter #   2 total cpu time :  1576.6 secs   av.it.:  12.0
      thresh= 7.131E-06 alpha_mix =  0.700 |ddv_scf|^2 =  2.876E-09

      iter #   3 total cpu time :  1580.8 secs   av.it.:  11.0
      thresh= 5.363E-06 alpha_mix =  0.700 |ddv_scf|^2 =  3.192E-11

      iter #   4 total cpu time :  1584.6 secs   av.it.:  11.5
      thresh= 5.650E-07 alpha_mix =  0.700 |ddv_scf|^2 =  8.714E-12

      iter #   5 total cpu time :  1588.9 secs   av.it.:  11.5
      thresh= 2.952E-07 alpha_mix =  0.700 |ddv_scf|^2 =  1.443E-13

      iter #   6 total cpu time :  1592.8 secs   av.it.:  11.5
      thresh= 3.798E-08 alpha_mix =  0.700 |ddv_scf|^2 =  4.864E-15

     End of self-consistent calculation

     Convergence has been achieved 


     Representation # 22 mode #  22

     Self-consistent Calculation

      iter #   1 total cpu time :  1595.9 secs   av.it.:   5.0
      thresh= 1.000E-02 alpha_mix =  0.700 |ddv_scf|^2 =  8.186E-08

      iter #   2 total cpu time :  1600.2 secs   av.it.:  12.0
      thresh= 2.861E-05 alpha_mix =  0.700 |ddv_scf|^2 =  5.855E-08

      iter #   3 total cpu time :  1603.9 secs   av.it.:  11.0
      thresh= 2.420E-05 alpha_mix =  0.700 |ddv_scf|^2 =  3.512E-10

      iter #   4 total cpu time :  1608.0 secs   av.it.:  11.0
      thresh= 1.874E-06 alpha_mix =  0.700 |ddv_scf|^2 =  2.005E-11

      iter #   5 total cpu time :  1612.6 secs   av.it.:  11.5
      thresh= 4.478E-07 alpha_mix =  0.700 |ddv_scf|^2 =  2.296E-12

      iter #   6 total cpu time :  1618.0 secs   av.it.:  11.5
      thresh= 1.515E-07 alpha_mix =  0.700 |ddv_scf|^2 =  8.926E-14

      iter #   7 total cpu time :  1626.3 secs   av.it.:  11.0
      thresh= 2.988E-08 alpha_mix =  0.700 |ddv_scf|^2 =  1.115E-15

     End of self-consistent calculation

     Convergence has been achieved 


     Representation # 23 mode #  23

     Self-consistent Calculation

      iter #   1 total cpu time :  1632.3 secs   av.it.:   5.0
      thresh= 1.000E-02 alpha_mix =  0.700 |ddv_scf|^2 =  5.275E-08

      iter #   2 total cpu time :  1639.5 secs   av.it.:  12.0
      thresh= 2.297E-05 alpha_mix =  0.700 |ddv_scf|^2 =  2.860E-08

      iter #   3 total cpu time :  1645.6 secs   av.it.:  11.5
      thresh= 1.691E-05 alpha_mix =  0.700 |ddv_scf|^2 =  5.571E-10

      iter #   4 total cpu time :  1651.3 secs   av.it.:  11.5
      thresh= 2.360E-06 alpha_mix =  0.700 |ddv_scf|^2 =  2.428E-11

      iter #   5 total cpu time :  1656.0 secs   av.it.:  12.0
      thresh= 4.928E-07 alpha_mix =  0.700 |ddv_scf|^2 =  2.078E-12

      iter #   6 total cpu time :  1666.5 secs   av.it.:  12.0
      thresh= 1.442E-07 alpha_mix =  0.700 |ddv_scf|^2 =  3.654E-13

      iter #   7 total cpu time :  1671.9 secs   av.it.:  11.5
      thresh= 6.045E-08 alpha_mix =  0.700 |ddv_scf|^2 =  3.635E-15

     End of self-consistent calculation

     Convergence has been achieved 


     Representation # 24 mode #  24

     Self-consistent Calculation

      iter #   1 total cpu time :  1675.7 secs   av.it.:   5.5
      thresh= 1.000E-02 alpha_mix =  0.700 |ddv_scf|^2 =  1.997E-07

      iter #   2 total cpu time :  1679.8 secs   av.it.:  11.5
      thresh= 4.469E-05 alpha_mix =  0.700 |ddv_scf|^2 =  5.226E-08

      iter #   3 total cpu time :  1683.5 secs   av.it.:  11.0
      thresh= 2.286E-05 alpha_mix =  0.700 |ddv_scf|^2 =  7.415E-10

      iter #   4 total cpu time :  1687.8 secs   av.it.:  11.5
      thresh= 2.723E-06 alpha_mix =  0.700 |ddv_scf|^2 =  8.704E-11

      iter #   5 total cpu time :  1692.5 secs   av.it.:  11.5
      thresh= 9.329E-07 alpha_mix =  0.700 |ddv_scf|^2 =  2.890E-12

      iter #   6 total cpu time :  1696.1 secs   av.it.:  11.5
      thresh= 1.700E-07 alpha_mix =  0.700 |ddv_scf|^2 =  4.873E-13

      iter #   7 total cpu time :  1702.3 secs   av.it.:  12.0
      thresh= 6.981E-08 alpha_mix =  0.700 |ddv_scf|^2 =  2.703E-14

      iter #   8 total cpu time :  1707.6 secs   av.it.:  12.0
      thresh= 1.644E-08 alpha_mix =  0.700 |ddv_scf|^2 =  1.349E-16

     End of self-consistent calculation

     Convergence has been achieved 


     Representation # 25 mode #  25

     Self-consistent Calculation

      iter #   1 total cpu time :  1717.0 secs   av.it.:   5.0
      thresh= 1.000E-02 alpha_mix =  0.700 |ddv_scf|^2 =  1.772E-07

      iter #   2 total cpu time :  1721.8 secs   av.it.:  12.0
      thresh= 4.210E-05 alpha_mix =  0.700 |ddv_scf|^2 =  3.689E-08

      iter #   3 total cpu time :  1725.6 secs   av.it.:  11.0
      thresh= 1.921E-05 alpha_mix =  0.700 |ddv_scf|^2 =  5.073E-11

      iter #   4 total cpu time :  1729.9 secs   av.it.:  11.5
      thresh= 7.122E-07 alpha_mix =  0.700 |ddv_scf|^2 =  1.398E-11

      iter #   5 total cpu time :  1734.1 secs   av.it.:  11.5
      thresh= 3.739E-07 alpha_mix =  0.700 |ddv_scf|^2 =  3.546E-12

      iter #   6 total cpu time :  1738.1 secs   av.it.:  11.0
      thresh= 1.883E-07 alpha_mix =  0.700 |ddv_scf|^2 =  1.149E-14

      iter #   7 total cpu time :  1744.1 secs   av.it.:  11.5
      thresh= 1.072E-08 alpha_mix =  0.700 |ddv_scf|^2 =  3.022E-16

     End of self-consistent calculation

     Convergence has been achieved 


     Representation # 26 mode #  26

     Self-consistent Calculation

      iter #   1 total cpu time :  1748.2 secs   av.it.:   4.0
      thresh= 1.000E-02 alpha_mix =  0.700 |ddv_scf|^2 =  1.489E-08

      iter #   2 total cpu time :  1753.6 secs   av.it.:  12.0
      thresh= 1.220E-05 alpha_mix =  0.700 |ddv_scf|^2 =  5.286E-09

      iter #   3 total cpu time :  1758.8 secs   av.it.:  11.5
      thresh= 7.271E-06 alpha_mix =  0.700 |ddv_scf|^2 =  8.522E-11

      iter #   4 total cpu time :  1762.5 secs   av.it.:  11.5
      thresh= 9.232E-07 alpha_mix =  0.700 |ddv_scf|^2 =  8.519E-12

      iter #   5 total cpu time :  1766.4 secs   av.it.:  11.5
      thresh= 2.919E-07 alpha_mix =  0.700 |ddv_scf|^2 =  3.202E-13

      iter #   6 total cpu time :  1769.3 secs   av.it.:  11.5
      thresh= 5.658E-08 alpha_mix =  0.700 |ddv_scf|^2 =  2.065E-14

      iter #   7 total cpu time :  1771.9 secs   av.it.:  11.5
      thresh= 1.437E-08 alpha_mix =  0.700 |ddv_scf|^2 =  5.692E-16

     End of self-consistent calculation

     Convergence has been achieved 


     Representation # 27 mode #  27

     Self-consistent Calculation

      iter #   1 total cpu time :  1774.9 secs   av.it.:   3.5
      thresh= 1.000E-02 alpha_mix =  0.700 |ddv_scf|^2 =  3.202E-09

      iter #   2 total cpu time :  1778.6 secs   av.it.:  12.0
      thresh= 5.659E-06 alpha_mix =  0.700 |ddv_scf|^2 =  7.323E-10

      iter #   3 total cpu time :  1782.9 secs   av.it.:  11.5
      thresh= 2.706E-06 alpha_mix =  0.700 |ddv_scf|^2 =  6.604E-11

      iter #   4 total cpu time :  1786.9 secs   av.it.:  11.5
      thresh= 8.127E-07 alpha_mix =  0.700 |ddv_scf|^2 =  3.931E-12

      iter #   5 total cpu time :  1790.4 secs   av.it.:  11.5
      thresh= 1.983E-07 alpha_mix =  0.700 |ddv_scf|^2 =  2.397E-13

      iter #   6 total cpu time :  1796.7 secs   av.it.:  12.0
      thresh= 4.895E-08 alpha_mix =  0.700 |ddv_scf|^2 =  3.305E-14

      iter #   7 total cpu time :  1800.2 secs   av.it.:  11.0
      thresh= 1.818E-08 alpha_mix =  0.700 |ddv_scf|^2 =  5.001E-16

     End of self-consistent calculation

     Convergence has been achieved 


     Representation # 28 mode #  28

     Self-consistent Calculation

      iter #   1 total cpu time :  1804.5 secs   av.it.:   3.0
      thresh= 1.000E-02 alpha_mix =  0.700 |ddv_scf|^2 =  3.392E-09

      iter #   2 total cpu time :  1809.5 secs   av.it.:  11.5
      thresh= 5.824E-06 alpha_mix =  0.700 |ddv_scf|^2 =  4.819E-09

      iter #   3 total cpu time :  1812.8 secs   av.it.:  10.0
      thresh= 6.942E-06 alpha_mix =  0.700 |ddv_scf|^2 =  9.750E-10

      iter #   4 total cpu time :  1816.3 secs   av.it.:  10.0
      thresh= 3.123E-06 alpha_mix =  0.700 |ddv_scf|^2 =  1.450E-11

      iter #   5 total cpu time :  1820.6 secs   av.it.:  11.5
      thresh= 3.808E-07 alpha_mix =  0.700 |ddv_scf|^2 =  1.978E-12

      iter #   6 total cpu time :  1824.6 secs   av.it.:  11.5
      thresh= 1.406E-07 alpha_mix =  0.700 |ddv_scf|^2 =  5.819E-13

      iter #   7 total cpu time :  1828.7 secs   av.it.:  10.0
      thresh= 7.629E-08 alpha_mix =  0.700 |ddv_scf|^2 =  3.053E-15

     End of self-consistent calculation

     Convergence has been achieved 


     Representation # 29 mode #  29

     Self-consistent Calculation

      iter #   1 total cpu time :  1831.7 secs   av.it.:   5.5
      thresh= 1.000E-02 alpha_mix =  0.700 |ddv_scf|^2 =  2.755E-07

      iter #   2 total cpu time :  1836.7 secs   av.it.:  11.5
      thresh= 5.249E-05 alpha_mix =  0.700 |ddv_scf|^2 =  1.211E-06

      iter #   3 total cpu time :  1839.9 secs   av.it.:   9.5
      thresh= 1.100E-04 alpha_mix =  0.700 |ddv_scf|^2 =  1.165E-08

      iter #   4 total cpu time :  1843.4 secs   av.it.:  11.5
      thresh= 1.079E-05 alpha_mix =  0.700 |ddv_scf|^2 =  5.798E-10

      iter #   5 total cpu time :  1846.6 secs   av.it.:  11.5
      thresh= 2.408E-06 alpha_mix =  0.700 |ddv_scf|^2 =  1.268E-11

      iter #   6 total cpu time :  1849.9 secs   av.it.:  10.5
      thresh= 3.561E-07 alpha_mix =  0.700 |ddv_scf|^2 =  1.786E-12

      iter #   7 total cpu time :  1853.5 secs   av.it.:  10.5
      thresh= 1.336E-07 alpha_mix =  0.700 |ddv_scf|^2 =  1.911E-13

      iter #   8 total cpu time :  1857.9 secs   av.it.:  10.5
      thresh= 4.372E-08 alpha_mix =  0.700 |ddv_scf|^2 =  2.505E-16

     End of self-consistent calculation

     Convergence has been achieved 


     Representation # 30 mode #  30

     Self-consistent Calculation

      iter #   1 total cpu time :  1861.6 secs   av.it.:   5.5
      thresh= 1.000E-02 alpha_mix =  0.700 |ddv_scf|^2 =  2.671E-07

      iter #   2 total cpu time :  1866.1 secs   av.it.:  11.5
      thresh= 5.168E-05 alpha_mix =  0.700 |ddv_scf|^2 =  1.190E-06

      iter #   3 total cpu time :  1870.8 secs   av.it.:   9.5
      thresh= 1.091E-04 alpha_mix =  0.700 |ddv_scf|^2 =  4.953E-09

      iter #   4 total cpu time :  1876.2 secs   av.it.:  11.5
      thresh= 7.037E-06 alpha_mix =  0.700 |ddv_scf|^2 =  2.557E-10

      iter #   5 total cpu time :  1879.8 secs   av.it.:  11.5
      thresh= 1.599E-06 alpha_mix =  0.700 |ddv_scf|^2 =  5.261E-11

      iter #   6 total cpu time :  1882.9 secs   av.it.:  11.0
      thresh= 7.253E-07 alpha_mix =  0.700 |ddv_scf|^2 =  6.482E-12

      iter #   7 total cpu time :  1886.4 secs   av.it.:  10.5
      thresh= 2.546E-07 alpha_mix =  0.700 |ddv_scf|^2 =  8.080E-13

      iter #   8 total cpu time :  1889.8 secs   av.it.:  10.0
      thresh= 8.989E-08 alpha_mix =  0.700 |ddv_scf|^2 =  5.766E-15

     End of self-consistent calculation

     Convergence has been achieved 


     Representation # 31 mode #  31

     Self-consistent Calculation

      iter #   1 total cpu time :  1892.3 secs   av.it.:   4.0
      thresh= 1.000E-02 alpha_mix =  0.700 |ddv_scf|^2 =  5.935E-09

      iter #   2 total cpu time :  1896.1 secs   av.it.:  12.0
      thresh= 7.704E-06 alpha_mix =  0.700 |ddv_scf|^2 =  1.648E-09

      iter #   3 total cpu time :  1899.8 secs   av.it.:  11.5
      thresh= 4.060E-06 alpha_mix =  0.700 |ddv_scf|^2 =  9.174E-10

      iter #   4 total cpu time :  1903.1 secs   av.it.:  10.0
      thresh= 3.029E-06 alpha_mix =  0.700 |ddv_scf|^2 =  6.267E-11

      iter #   5 total cpu time :  1906.5 secs   av.it.:  11.0
      thresh= 7.916E-07 alpha_mix =  0.700 |ddv_scf|^2 =  2.375E-12

      iter #   6 total cpu time :  1909.8 secs   av.it.:  11.0
      thresh= 1.541E-07 alpha_mix =  0.700 |ddv_scf|^2 =  3.798E-14

      iter #   7 total cpu time :  1914.0 secs   av.it.:  11.5
      thresh= 1.949E-08 alpha_mix =  0.700 |ddv_scf|^2 =  3.358E-15

     End of self-consistent calculation

     Convergence has been achieved 


     Representation # 32 mode #  32

     Self-consistent Calculation

      iter #   1 total cpu time :  1918.2 secs   av.it.:   5.5
      thresh= 1.000E-02 alpha_mix =  0.700 |ddv_scf|^2 =  1.371E-06

      iter #   2 total cpu time :  1923.1 secs   av.it.:  11.0
      thresh= 1.171E-04 alpha_mix =  0.700 |ddv_scf|^2 =  3.620E-06

      iter #   3 total cpu time :  1929.2 secs   av.it.:   9.5
      thresh= 1.903E-04 alpha_mix =  0.700 |ddv_scf|^2 =  1.047E-07

      iter #   4 total cpu time :  1934.1 secs   av.it.:  10.0
      thresh= 3.235E-05 alpha_mix =  0.700 |ddv_scf|^2 =  5.155E-10

      iter #   5 total cpu time :  1939.0 secs   av.it.:  11.5
      thresh= 2.270E-06 alpha_mix =  0.700 |ddv_scf|^2 =  1.534E-11

      iter #   6 total cpu time :  1943.3 secs   av.it.:  11.0
      thresh= 3.916E-07 alpha_mix =  0.700 |ddv_scf|^2 =  5.977E-13

      iter #   7 total cpu time :  1947.7 secs   av.it.:  11.5
      thresh= 7.731E-08 alpha_mix =  0.700 |ddv_scf|^2 =  1.492E-13

      iter #   8 total cpu time :  1951.1 secs   av.it.:  10.5
      thresh= 3.863E-08 alpha_mix =  0.700 |ddv_scf|^2 =  1.423E-15

     End of self-consistent calculation

     Convergence has been achieved 


     Representation # 33 mode #  33

     Self-consistent Calculation

      iter #   1 total cpu time :  1953.3 secs   av.it.:   4.0
      thresh= 1.000E-02 alpha_mix =  0.700 |ddv_scf|^2 =  4.107E-08

      iter #   2 total cpu time :  1957.8 secs   av.it.:  11.5
      thresh= 2.027E-05 alpha_mix =  0.700 |ddv_scf|^2 =  1.850E-07

      iter #   3 total cpu time :  1961.8 secs   av.it.:   9.5
      thresh= 4.301E-05 alpha_mix =  0.700 |ddv_scf|^2 =  9.724E-10

      iter #   4 total cpu time :  1966.4 secs   av.it.:  11.5
      thresh= 3.118E-06 alpha_mix =  0.700 |ddv_scf|^2 =  8.403E-10

      iter #   5 total cpu time :  1969.5 secs   av.it.:  10.0
      thresh= 2.899E-06 alpha_mix =  0.700 |ddv_scf|^2 =  2.635E-12

      iter #   6 total cpu time :  1972.0 secs   av.it.:  10.5
      thresh= 1.623E-07 alpha_mix =  0.700 |ddv_scf|^2 =  2.177E-14

      iter #   7 total cpu time :  1975.4 secs   av.it.:  11.5
      thresh= 1.475E-08 alpha_mix =  0.700 |ddv_scf|^2 =  1.185E-15

     End of self-consistent calculation

     Convergence has been achieved 


     Representation # 34 mode #  34

     Self-consistent Calculation

      iter #   1 total cpu time :  1978.5 secs   av.it.:   5.5
      thresh= 1.000E-02 alpha_mix =  0.700 |ddv_scf|^2 =  3.797E-07

      iter #   2 total cpu time :  1982.3 secs   av.it.:  11.5
      thresh= 6.162E-05 alpha_mix =  0.700 |ddv_scf|^2 =  1.673E-06

      iter #   3 total cpu time :  1984.7 secs   av.it.:   9.5
      thresh= 1.293E-04 alpha_mix =  0.700 |ddv_scf|^2 =  1.299E-08

      iter #   4 total cpu time :  1987.4 secs   av.it.:  11.0
      thresh= 1.140E-05 alpha_mix =  0.700 |ddv_scf|^2 =  1.834E-10

      iter #   5 total cpu time :  1991.3 secs   av.it.:  11.0
      thresh= 1.354E-06 alpha_mix =  0.700 |ddv_scf|^2 =  4.896E-11

      iter #   6 total cpu time :  1995.9 secs   av.it.:  11.0
      thresh= 6.997E-07 alpha_mix =  0.700 |ddv_scf|^2 =  3.647E-12

      iter #   7 total cpu time :  1999.2 secs   av.it.:  10.5
      thresh= 1.910E-07 alpha_mix =  0.700 |ddv_scf|^2 =  3.995E-14

      iter #   8 total cpu time :  2003.8 secs   av.it.:  11.5
      thresh= 1.999E-08 alpha_mix =  0.700 |ddv_scf|^2 =  1.257E-14

      iter #   9 total cpu time :  2008.0 secs   av.it.:  11.0
      thresh= 1.121E-08 alpha_mix =  0.700 |ddv_scf|^2 =  5.778E-17

     End of self-consistent calculation

     Convergence has been achieved 


     Representation # 35 mode #  35

     Self-consistent Calculation

      iter #   1 total cpu time :  2011.0 secs   av.it.:   4.0
      thresh= 1.000E-02 alpha_mix =  0.700 |ddv_scf|^2 =  3.549E-08

      iter #   2 total cpu time :  2015.3 secs   av.it.:  11.5
      thresh= 1.884E-05 alpha_mix =  0.700 |ddv_scf|^2 =  1.620E-07

[...]
      thresh= 1.000E-02 alpha_mix =  0.700 |ddv_scf|^2 =  4.834E-09

      iter #   2 total cpu time :  2577.6 secs   av.it.:  12.5
      thresh= 6.953E-06 alpha_mix =  0.700 |ddv_scf|^2 =  3.326E-09

      iter #   3 total cpu time :  2580.0 secs   av.it.:  11.5
      thresh= 5.767E-06 alpha_mix =  0.700 |ddv_scf|^2 =  4.718E-11

      iter #   4 total cpu time :  2582.6 secs   av.it.:  12.0
      thresh= 6.869E-07 alpha_mix =  0.700 |ddv_scf|^2 =  2.999E-11

      iter #   5 total cpu time :  2585.0 secs   av.it.:  11.5
      thresh= 5.476E-07 alpha_mix =  0.700 |ddv_scf|^2 =  5.954E-13

      iter #   6 total cpu time :  2587.4 secs   av.it.:  11.5
      thresh= 7.716E-08 alpha_mix =  0.700 |ddv_scf|^2 =  8.494E-14

      iter #   7 total cpu time :  2589.9 secs   av.it.:  11.5
      thresh= 2.914E-08 alpha_mix =  0.700 |ddv_scf|^2 =  3.698E-15

     End of self-consistent calculation

     Convergence has been achieved 


     Representation # 52 mode #  52

     Self-consistent Calculation

      iter #   1 total cpu time :  2591.6 secs   av.it.:   3.0
      thresh= 1.000E-02 alpha_mix =  0.700 |ddv_scf|^2 =  6.384E-10

      iter #   2 total cpu time :  2594.1 secs   av.it.:  11.5
      thresh= 2.527E-06 alpha_mix =  0.700 |ddv_scf|^2 =  1.557E-10

      iter #   3 total cpu time :  2596.5 secs   av.it.:  11.5
      thresh= 1.248E-06 alpha_mix =  0.700 |ddv_scf|^2 =  7.263E-11

      iter #   4 total cpu time :  2598.8 secs   av.it.:  11.5
      thresh= 8.522E-07 alpha_mix =  0.700 |ddv_scf|^2 =  8.438E-13

      iter #   5 total cpu time :  2601.2 secs   av.it.:  11.5
      thresh= 9.186E-08 alpha_mix =  0.700 |ddv_scf|^2 =  1.414E-13

      iter #   6 total cpu time :  2603.7 secs   av.it.:  11.5
      thresh= 3.760E-08 alpha_mix =  0.700 |ddv_scf|^2 =  3.721E-15

     End of self-consistent calculation

     Convergence has been achieved 


     Representation # 53 mode #  53

     Self-consistent Calculation

      iter #   1 total cpu time :  2605.6 secs   av.it.:   5.0
      thresh= 1.000E-02 alpha_mix =  0.700 |ddv_scf|^2 =  1.352E-07

      iter #   2 total cpu time :  2607.9 secs   av.it.:  12.0
      thresh= 3.677E-05 alpha_mix =  0.700 |ddv_scf|^2 =  1.838E-07

      iter #   3 total cpu time :  2610.2 secs   av.it.:  11.0
      thresh= 4.287E-05 alpha_mix =  0.700 |ddv_scf|^2 =  2.829E-10

      iter #   4 total cpu time :  2612.5 secs   av.it.:  11.5
      thresh= 1.682E-06 alpha_mix =  0.700 |ddv_scf|^2 =  3.545E-11

      iter #   5 total cpu time :  2614.9 secs   av.it.:  11.5
      thresh= 5.954E-07 alpha_mix =  0.700 |ddv_scf|^2 =  3.498E-12

      iter #   6 total cpu time :  2617.2 secs   av.it.:  11.5
      thresh= 1.870E-07 alpha_mix =  0.700 |ddv_scf|^2 =  6.239E-13

      iter #   7 total cpu time :  2619.6 secs   av.it.:  11.5
      thresh= 7.899E-08 alpha_mix =  0.700 |ddv_scf|^2 =  2.281E-14

      iter #   8 total cpu time :  2622.2 secs   av.it.:  11.5
      thresh= 1.510E-08 alpha_mix =  0.700 |ddv_scf|^2 =  6.962E-15

     End of self-consistent calculation

     Convergence has been achieved 


     Representation # 54 mode #  54

     Self-consistent Calculation

      iter #   1 total cpu time :  2624.2 secs   av.it.:   5.0
      thresh= 1.000E-02 alpha_mix =  0.700 |ddv_scf|^2 =  1.068E-07

      iter #   2 total cpu time :  2626.6 secs   av.it.:  12.0
      thresh= 3.268E-05 alpha_mix =  0.700 |ddv_scf|^2 =  1.247E-07

      iter #   3 total cpu time :  2628.8 secs   av.it.:  11.0
      thresh= 3.531E-05 alpha_mix =  0.700 |ddv_scf|^2 =  7.957E-10

      iter #   4 total cpu time :  2631.1 secs   av.it.:  11.5
      thresh= 2.821E-06 alpha_mix =  0.700 |ddv_scf|^2 =  6.738E-11

      iter #   5 total cpu time :  2633.5 secs   av.it.:  11.5
      thresh= 8.208E-07 alpha_mix =  0.700 |ddv_scf|^2 =  8.011E-12

      iter #   6 total cpu time :  2635.8 secs   av.it.:  11.5
      thresh= 2.830E-07 alpha_mix =  0.700 |ddv_scf|^2 =  9.582E-13

      iter #   7 total cpu time :  2638.1 secs   av.it.:  11.5
      thresh= 9.789E-08 alpha_mix =  0.700 |ddv_scf|^2 =  1.156E-14

      iter #   8 total cpu time :  2640.4 secs   av.it.:  12.0
      thresh= 1.075E-08 alpha_mix =  0.700 |ddv_scf|^2 =  2.180E-15

     End of self-consistent calculation

     Convergence has been achieved 

     Number of q in the star =    1
     List of q in the star:
          1   0.000000000   0.000000000   0.000000000

          Dielectric constant in cartesian axis 

          (       5.437087599       0.000000000       0.006816755 )
          (       0.000000000       1.647870652       0.000000000 )
          (       0.006816755       0.000000000       1.315454091 )

          Effective charges (d Force / dE) in cartesian axis

           atom      1   H  
      Ex  (        0.13750       -0.04306       -0.09884 )
      Ey  (       -0.05449       -0.01840        0.13551 )
      Ez  (       -0.02181        0.04541       -0.11637 )
           atom      2   H  
      Ex  (        0.02972        0.07312        0.06012 )
      Ey  (        0.08860       -0.07157       -0.09836 )
      Ez  (        0.02809       -0.04016        0.01349 )
           atom      3   H  
      Ex  (        0.02972       -0.07312        0.06012 )
      Ey  (       -0.08860       -0.07157        0.09836 )
      Ez  (        0.02809        0.04016        0.01349 )
           atom      4   H  
      Ex  (        0.13750        0.04306       -0.09884 )
      Ey  (        0.05449       -0.01840       -0.13551 )
      Ez  (       -0.02181       -0.04541       -0.11637 )
           atom      5   C  
      Ex  (        0.11475       -0.13022        0.07693 )
      Ey  (       -0.05394        0.07819        0.01895 )
      Ez  (        0.01078        0.00936        0.20302 )
           atom      6   C  
      Ex  (        0.11475        0.13022        0.07693 )
      Ey  (        0.05394        0.07819       -0.01895 )
      Ez  (        0.01078       -0.00936        0.20302 )
           atom      7   C  
      Ex  (       -0.99188        0.89930       -0.13315 )
      Ey  (        0.18241        0.09115       -0.18231 )
      Ez  (       -0.01899       -0.06364       -0.04132 )
           atom      8   C  
      Ex  (       -0.99188       -0.89930       -0.13315 )
      Ey  (       -0.18241        0.09115        0.18231 )
      Ez  (       -0.01899        0.06364       -0.04132 )
           atom      9   C  
      Ex  (       -0.53360        0.00000        0.18900 )
      Ey  (        0.00000       -0.08304       -0.00000 )
      Ez  (        0.00564       -0.00000       -0.01696 )
           atom     10   C  
      Ex  (       -0.53360        0.00000        0.18900 )
      Ey  (        0.00000       -0.08304        0.00000 )
      Ez  (        0.00564        0.00000       -0.01696 )
           atom     11   C  
      Ex  (       -0.99188       -0.89930       -0.13315 )
      Ey  (       -0.18241        0.09115        0.18231 )
      Ez  (       -0.01899        0.06364       -0.04132 )
           atom     12   C  
      Ex  (       -0.99188        0.89930       -0.13315 )
      Ey  (        0.18241        0.09115       -0.18231 )
      Ez  (       -0.01899       -0.06364       -0.04132 )
           atom     13   C  
      Ex  (        0.11475        0.13022        0.07693 )
      Ey  (        0.05394        0.07819       -0.01895 )
      Ez  (        0.01078       -0.00936        0.20302 )
           atom     14   C  
      Ex  (        0.11475       -0.13022        0.07693 )
      Ey  (       -0.05394        0.07819        0.01895 )
      Ez  (        0.01078        0.00936        0.20302 )
           atom     15   H  
      Ex  (        0.13750       -0.04306       -0.09884 )
      Ey  (       -0.05449       -0.01840        0.13551 )
      Ez  (       -0.02181        0.04541       -0.11637 )
           atom     16   H  
      Ex  (        0.02972        0.07312        0.06012 )
      Ey  (        0.08860       -0.07157       -0.09836 )
      Ez  (        0.02809       -0.04016        0.01349 )
           atom     17   H  
      Ex  (        0.02972       -0.07312        0.06012 )
      Ey  (       -0.08860       -0.07157        0.09836 )
      Ez  (        0.02809        0.04016        0.01349 )
           atom     18   H  
      Ex  (        0.13750        0.04306       -0.09884 )
      Ey  (        0.05449       -0.01840       -0.13551 )
      Ez  (       -0.02181       -0.04541       -0.11637 )

     Diagonalizing the dynamical matrix

     q = (    0.000000000   0.000000000   0.000000000 ) 

 **************************************************************************
     freq (    1) =      -1.997299 [THz] =     -66.622720 [cm-1]
     freq (    2) =      -1.738956 [THz] =     -58.005339 [cm-1]
     freq (    3) =      -1.163315 [THz] =     -38.804004 [cm-1]
     freq (    4) =       0.781813 [THz] =      26.078489 [cm-1]
     freq (    5) =       2.088932 [THz] =      69.679279 [cm-1]
     freq (    6) =       2.580040 [THz] =      86.060881 [cm-1]
     freq (    7) =       4.483434 [THz] =     149.551275 [cm-1]
     freq (    8) =       8.720337 [THz] =     290.879116 [cm-1]
     freq (    9) =      10.275294 [THz] =     342.746905 [cm-1]
     freq (   10) =      12.939878 [THz] =     431.627856 [cm-1]
     freq (   11) =      14.411058 [THz] =     480.701141 [cm-1]
     freq (   12) =      15.492279 [THz] =     516.766794 [cm-1]
     freq (   13) =      15.498826 [THz] =     516.985202 [cm-1]
     freq (   14) =      16.385241 [THz] =     546.552825 [cm-1]
     freq (   15) =      17.363461 [THz] =     579.182719 [cm-1]
     freq (   16) =      19.586127 [THz] =     653.322861 [cm-1]
     freq (   17) =      21.315649 [THz] =     711.013527 [cm-1]
     freq (   18) =      23.160431 [THz] =     772.548808 [cm-1]
     freq (   19) =      24.359314 [THz] =     812.539245 [cm-1]
     freq (   20) =      24.466314 [THz] =     816.108393 [cm-1]
     freq (   21) =      27.478206 [THz] =     916.574302 [cm-1]
     freq (   22) =      29.990743 [THz] =    1000.383489 [cm-1]
     freq (   23) =      30.025460 [THz] =    1001.541544 [cm-1]
     freq (   24) =      30.312702 [THz] =    1011.122901 [cm-1]
     freq (   25) =      30.618973 [THz] =    1021.338992 [cm-1]
     freq (   26) =      32.762110 [THz] =    1092.826352 [cm-1]
     freq (   27) =      33.732343 [THz] =    1125.189862 [cm-1]
     freq (   28) =      34.192535 [THz] =    1140.540213 [cm-1]
     freq (   29) =      34.824443 [THz] =    1161.618373 [cm-1]
     freq (   30) =      34.951298 [THz] =    1165.849806 [cm-1]
     freq (   31) =      36.448293 [THz] =    1215.784180 [cm-1]
     freq (   32) =      37.577706 [THz] =    1253.457360 [cm-1]
     freq (   33) =      38.546068 [THz] =    1285.758440 [cm-1]
     freq (   34) =      38.768305 [THz] =    1293.171458 [cm-1]
     freq (   35) =      39.311211 [THz] =    1311.280854 [cm-1]
     freq (   36) =      39.565370 [THz] =    1319.758670 [cm-1]
     freq (   37) =      39.592783 [THz] =    1320.673069 [cm-1]
     freq (   38) =      39.764498 [THz] =    1326.400890 [cm-1]
     freq (   39) =      40.884593 [THz] =    1363.763216 [cm-1]
     freq (   40) =      41.294787 [THz] =    1377.445826 [cm-1]
     freq (   41) =      42.176828 [THz] =    1406.867553 [cm-1]
     freq (   42) =      42.586306 [THz] =    1420.526264 [cm-1]
     freq (   43) =      43.108474 [THz] =    1437.943924 [cm-1]
     freq (   44) =      43.130586 [THz] =    1438.681476 [cm-1]
     freq (   45) =      47.680804 [THz] =    1590.460412 [cm-1]
     freq (   46) =      47.836731 [THz] =    1595.661581 [cm-1]
     freq (   47) =      88.750791 [THz] =    2960.407739 [cm-1]
     freq (   48) =      88.792605 [THz] =    2961.802495 [cm-1]
     freq (   49) =      89.138042 [THz] =    2973.325020 [cm-1]
     freq (   50) =      89.153977 [THz] =    2973.856563 [cm-1]
     freq (   51) =      92.803568 [THz] =    3095.593823 [cm-1]
     freq (   52) =      92.820196 [THz] =    3096.148466 [cm-1]
     freq (   53) =      93.494933 [THz] =    3118.655285 [cm-1]
     freq (   54) =      93.522384 [THz] =    3119.570945 [cm-1]
 **************************************************************************

     Mode symmetry, C_2h (2/m)  point group:

     freq (  1 -  1) =        -66.6  [cm-1]   --> A_u             I  
     freq (  2 -  2) =        -58.0  [cm-1]   --> A_u             I  
     freq (  3 -  3) =        -38.8  [cm-1]   --> B_u             I  
     freq (  4 -  4) =         26.1  [cm-1]   --> B_g             R  
     freq (  5 -  5) =         69.7  [cm-1]   --> A_g             R  
     freq (  6 -  6) =         86.1  [cm-1]   --> B_u             I  
     freq (  7 -  7) =        149.6  [cm-1]   --> B_u             I  
     freq (  8 -  8) =        290.9  [cm-1]   --> B_g             R  
     freq (  9 -  9) =        342.7  [cm-1]   --> B_g             R  
     freq ( 10 - 10) =        431.6  [cm-1]   --> A_g             R  
     freq ( 11 - 11) =        480.7  [cm-1]   --> B_u             I  
     freq ( 12 - 12) =        516.8  [cm-1]   --> A_g             R  
     freq ( 13 - 13) =        517.0  [cm-1]   --> B_g             R  
     freq ( 14 - 14) =        546.6  [cm-1]   --> A_u             I  
     freq ( 15 - 15) =        579.2  [cm-1]   --> B_u             I  
     freq ( 16 - 16) =        653.3  [cm-1]   --> B_u             I  
     freq ( 17 - 17) =        711.0  [cm-1]   --> B_g             R  
     freq ( 18 - 18) =        772.5  [cm-1]   --> A_g             R  
     freq ( 19 - 19) =        812.5  [cm-1]   --> B_u             I  
     freq ( 20 - 20) =        816.1  [cm-1]   --> A_u             I  
     freq ( 21 - 21) =        916.6  [cm-1]   --> B_g             R  
     freq ( 22 - 22) =       1000.4  [cm-1]   --> A_g             R  
     freq ( 23 - 23) =       1001.5  [cm-1]   --> A_u             I  
     freq ( 24 - 24) =       1011.1  [cm-1]   --> A_g             R  
     freq ( 25 - 25) =       1021.3  [cm-1]   --> B_g             R  
     freq ( 26 - 26) =       1092.8  [cm-1]   --> A_u             I  
     freq ( 27 - 27) =       1125.2  [cm-1]   --> B_u             I  
     freq ( 28 - 28) =       1140.5  [cm-1]   --> A_g             R  
     freq ( 29 - 29) =       1161.6  [cm-1]   --> B_u             I  
     freq ( 30 - 30) =       1165.8  [cm-1]   --> B_g             R  
     freq ( 31 - 31) =       1215.8  [cm-1]   --> A_u             I  
     freq ( 32 - 32) =       1253.5  [cm-1]   --> A_g             R  
     freq ( 33 - 33) =       1285.8  [cm-1]   --> A_u             I  
     freq ( 34 - 34) =       1293.2  [cm-1]   --> A_g             R  
     freq ( 35 - 35) =       1311.3  [cm-1]   --> A_g             R  
     freq ( 36 - 36) =       1319.8  [cm-1]   --> B_g             R  
     freq ( 37 - 37) =       1320.7  [cm-1]   --> A_u             I  
     freq ( 38 - 38) =       1326.4  [cm-1]   --> B_u             I  
     freq ( 39 - 39) =       1363.8  [cm-1]   --> A_u             I  
     freq ( 40 - 40) =       1377.4  [cm-1]   --> B_u             I  
     freq ( 41 - 41) =       1406.9  [cm-1]   --> B_g             R  
     freq ( 42 - 42) =       1420.5  [cm-1]   --> B_u             I  
     freq ( 43 - 43) =       1437.9  [cm-1]   --> A_u             I  
     freq ( 44 - 44) =       1438.7  [cm-1]   --> A_g             R  
     freq ( 45 - 45) =       1590.5  [cm-1]   --> B_g             R  
     freq ( 46 - 46) =       1595.7  [cm-1]   --> A_g             R  
     freq ( 47 - 47) =       2960.4  [cm-1]   --> A_u             I  
     freq ( 48 - 48) =       2961.8  [cm-1]   --> A_g             R  
     freq ( 49 - 49) =       2973.3  [cm-1]   --> B_g             R  
     freq ( 50 - 50) =       2973.9  [cm-1]   --> B_u             I  
     freq ( 51 - 51) =       3095.6  [cm-1]   --> B_g             R  
     freq ( 52 - 52) =       3096.1  [cm-1]   --> B_u             I  
     freq ( 53 - 53) =       3118.7  [cm-1]   --> A_u             I  
     freq ( 54 - 54) =       3119.6  [cm-1]   --> A_g             R  

     PHONON       : 39m24.30s CPU    44m 0.92s WALL

     INITIALIZATION: 
     phq_setup    :      0.40s CPU      0.41s WALL (       1 calls)
     phq_init     :     13.97s CPU     14.09s WALL (       1 calls)

     phq_init     :     13.97s CPU     14.09s WALL (       1 calls)
     init_vloc    :      1.29s CPU      1.32s WALL (       1 calls)
     init_us_1    :      0.01s CPU      0.01s WALL (       1 calls)

     DIELECTRIC CONSTANT AND EFFECTIVE CHARGES:
     solve_e      :    140.10s CPU    159.36s WALL (       1 calls)
     dielec       :      0.09s CPU      0.11s WALL (       1 calls)
     zstar_eu     :     21.63s CPU     28.94s WALL (       1 calls)

     RAMAN COEFFICIENTS, THIRD-ORDER CHI:
     dhdrhopsi    :    314.99s CPU    352.05s WALL (       1 calls)
     dvpsi_e2     :      6.96s CPU     10.02s WALL (       1 calls)
     solve_e2     :    265.95s CPU    301.64s WALL (       1 calls)

     DYNAMICAL MATRIX:
     dynmat0      :      8.52s CPU      8.58s WALL (       1 calls)
     phqscf       :   1549.24s CPU   1721.24s WALL (       1 calls)
     dynmatrix    :      0.06s CPU      0.07s WALL (       1 calls)

     phqscf       :   1549.24s CPU   1721.24s WALL (       1 calls)
     solve_linter :   1514.01s CPU   1680.70s WALL (      54 calls)
     drhodv       :     28.82s CPU     33.48s WALL (      54 calls)

     dynmat0      :      8.52s CPU      8.58s WALL (       1 calls)
     dynmat_us    :      2.02s CPU      2.04s WALL (       1 calls)
     d2ionq       :      6.03s CPU      6.08s WALL (       1 calls)

     dynmat_us    :      2.02s CPU      2.04s WALL (       1 calls)

     phqscf       :   1549.24s CPU   1721.24s WALL (       1 calls)
     solve_linter :   1514.01s CPU   1680.70s WALL (      54 calls)

     solve_linter :   1514.01s CPU   1680.70s WALL (      54 calls)
     dvqpsi_us    :     66.03s CPU     72.05s WALL (     324 calls)
     ortho        :      3.73s CPU      4.16s WALL (     465 calls)
     cgsolve      :   1540.22s CPU   1730.54s WALL (     549 calls)
     incdrhoscf   :    109.63s CPU    122.69s WALL (     510 calls)
     vpsifft      :     72.39s CPU     79.00s WALL (     357 calls)
     dv_of_drho   :     58.84s CPU     65.93s WALL (     519 calls)
     mix_pot      :     12.97s CPU     19.10s WALL (     433 calls)
     psymdvscf    :     65.63s CPU     72.20s WALL (     411 calls)

     dvqpsi_us    :     66.03s CPU     72.05s WALL (     324 calls)
     dvqpsi_us_on :      0.60s CPU      0.62s WALL (     324 calls)

     cgsolve      :   1540.22s CPU   1730.54s WALL (     549 calls)
     ch_psi       :   1470.41s CPU   1652.06s WALL (   10019 calls)

     ch_psi       :   1470.41s CPU   1652.06s WALL (   10019 calls)
     h_psiq       :   1349.72s CPU   1518.58s WALL (   10019 calls)
     last         :    113.00s CPU    125.00s WALL (   10019 calls)

     h_psiq       :   1349.72s CPU   1518.58s WALL (   10019 calls)
     firstfft     :    578.41s CPU    652.31s WALL (  166734 calls)
     secondfft    :    671.31s CPU    755.08s WALL (  166734 calls)
     add_vuspsi   :     10.68s CPU     11.80s WALL (   12749 calls)

     incdrhoscf   :    109.63s CPU    122.69s WALL (     510 calls)


      General routines
     calbec       :     60.85s CPU     67.39s WALL (   26393 calls)
     fft          :     46.38s CPU     51.96s WALL (    5723 calls)
     ffts         :     21.22s CPU     24.40s WALL (    3240 calls)
     fftw         :   1475.84s CPU   1655.42s WALL (  402948 calls)
     davcio       :      0.65s CPU      9.25s WALL (    5474 calls)
     write_rec    :     16.45s CPU     19.05s WALL (     487 calls)


     PHONON       : 39m24.30s CPU    44m 0.92s WALL


   This run was terminated on:  15:49: 6   6Jul2014            

=------------------------------------------------------------------------------=
   JOB DONE.
=------------------------------------------------------------------------------=
