
     Program PHONON v.5.0.2 (svn rev. 10600) starts on  5Jul2014 at 22:16:46 

     This program is part of the open-source Quantum ESPRESSO suite
     for quantum simulation of materials; please cite
         "P. Giannozzi et al., J. Phys.:Condens. Matter 21 395502 (2009);
          URL http://www.quantum-espresso.org", 
     in publications or presentations arising from this work. More details at
     http://www.quantum-espresso.org/quote

     Parallel version (MPI), running on     4 processors
     K-points division:     npool     =       2
     R & G space division:  proc/nbgrp/npool/nimage =       2
     Run is not recoverable starting from scratch

   Info: using nr1, nr2, nr3 values from input

   Info: using nr1s, nr2s, nr3s values from input

     IMPORTANT: XC functional enforced from input :
     Exchange-correlation      = SLA  PW   PBE  PBE ( 1  4  3  4 0)
     Any further DFT definition will be discarded
     Please, verify this is what you really want

               file H.pbe-vbc.UPF: wavefunction(s)  0S renormalized

     Parallelization info
     --------------------
     sticks:   dense  smooth     PW     G-vecs:    dense   smooth      PW
     Min        1103    1103    312                41825    41825    6308
     Max        1104    1104    313                41826    41826    6311
     Sum        2207    2207    625                83651    83651   12619


     Calculation of q =    0.0000000   0.0000000   0.0000000

                                                                                

     bravais-lattice index     =            8
     lattice parameter (alat)  =       8.0518  a.u.
     unit-cell volume          =    2990.3752 (a.u.)^3
     number of atoms/cell      =           18
     number of atomic types    =            2
     kinetic-energy cut-off    =      35.0000  Ry
     charge density cut-off    =     140.0000  Ry
     convergence threshold     =      1.0E-14
     beta                      =       0.7000
     number of iterations used =            4
     Exchange-correlation      = SLA  PW   PBE  PBE ( 1  4  3  4 0)


     celldm(1)=    8.05183  celldm(2)=    3.05104  celldm(3)=    1.87756
     celldm(4)=    0.00000  celldm(5)=    0.00000  celldm(6)=    0.00000

     crystal axes: (cart. coord. in units of alat)
               a(1) = (  1.0000  0.0000  0.0000 )  
               a(2) = (  0.0000  3.0510  0.0000 )  
               a(3) = (  0.0000  0.0000  1.8776 )  

     reciprocal axes: (cart. coord. in units 2 pi/alat)
               b(1) = (  1.0000  0.0000  0.0000 )  
               b(2) = (  0.0000  0.3278  0.0000 )  
               b(3) = (  0.0000  0.0000  0.5326 )  


     Atoms inside the unit cell: 

     Cartesian axes

     site n.  atom      mass           positions (alat units)
        1     H    1.0079   tau(    1) = (    0.21636   -1.09199   -0.00000  )
        2     H    1.0079   tau(    2) = (    0.78364   -1.09199   -0.00000  )
        3     C   12.0107   tau(    3) = (    0.33970   -0.86765   -0.00000  )
        4     C   12.0107   tau(    4) = (    0.66030   -0.86765   -0.00000  )
        5     C   12.0107   tau(    5) = (    0.17055   -0.58084   -0.00000  )
        6     C   12.0107   tau(    6) = (    0.82945   -0.58084   -0.00000  )
        7     C   12.0107   tau(    7) = (    0.33097   -0.29302    0.00000  )
        8     C   12.0107   tau(    8) = (    0.66903   -0.29302   -0.00000  )
        9     C   12.0107   tau(    9) = (    0.16559    0.00000    0.00000  )
       10     C   12.0107   tau(   10) = (    0.83441   -0.00000    0.00000  )
       11     C   12.0107   tau(   11) = (    0.33097    0.29302   -0.00000  )
       12     C   12.0107   tau(   12) = (    0.66903    0.29302    0.00000  )
       13     C   12.0107   tau(   13) = (    0.17055    0.58084    0.00000  )
       14     C   12.0107   tau(   14) = (    0.82945    0.58084   -0.00000  )
       15     C   12.0107   tau(   15) = (    0.33970    0.86765    0.00000  )
       16     C   12.0107   tau(   16) = (    0.66030    0.86765    0.00000  )
       17     H    1.0079   tau(   17) = (    0.21636    1.09199   -0.00000  )
       18     H    1.0079   tau(   18) = (    0.78364    1.09199   -0.00000  )

     Computing dynamical matrix for 
                    q = (   0.0000000   0.0000000   0.0000000 )

      9 Sym.Ops. (with q -> -q+G )


     G cutoff =  229.9098  (  41825 G-vectors)     FFT grid: ( 32, 96, 60)
     number of k points=     2
                       cart. coord. in units 2pi/alat
        k(    1) = (   0.0000000   0.0000000   0.0000000), wk =   1.0000000
        k(    2) = (  -0.5000000   0.0000000   0.0000000), wk =   1.0000000

     PseudoPot. # 1 for C  read from file:
     ../PP_LIBRARY/C.pbe-mt_gipaw.UPF
     MD5 check sum: 5ac2f21f2c440b14befe521540822c15
     Pseudo is Norm-conserving, Zval =  4.0
     Generated by new atomic code, or converted to UPF format
     Using radial grid of 1073 points,  1 beta functions with: 
                l(1) =   0

     PseudoPot. # 2 for H  read from file:
     ../PP_LIBRARY/H.pbe-vbc.UPF
     MD5 check sum: 0ad67d0772b4eb71cad78a7d32695431
     Pseudo is Norm-conserving, Zval =  1.0
     Generated by new atomic code, or converted to UPF format
     Using radial grid of  325 points,  0 beta functions with: 

     Mode symmetry, D_2h (mmm)  point group:


     Electric field:
     Dielectric constant
     Born effective charges as d Force / d E
     Raman tensor


     Atomic displacements:
     There are  54 irreducible representations

     Representation     1      1 modes -A_g  To be done

     Representation     2      1 modes -A_g  To be done

     Representation     3      1 modes -A_g  To be done

     Representation     4      1 modes -A_g  To be done

     Representation     5      1 modes -A_g  To be done

     Representation     6      1 modes -A_g  To be done

     Representation     7      1 modes -A_g  To be done

     Representation     8      1 modes -A_g  To be done

     Representation     9      1 modes -A_g  To be done

     Representation    10      1 modes -B_1g  To be done

     Representation    11      1 modes -B_1g  To be done

     Representation    12      1 modes -B_1g  To be done

     Representation    13      1 modes -B_1g  To be done

     Representation    14      1 modes -B_1g  To be done

     Representation    15      1 modes -B_1g  To be done

     Representation    16      1 modes -B_1g  To be done

     Representation    17      1 modes -B_1g  To be done

     Representation    18      1 modes -B_1g  To be done

     Representation    19      1 modes -B_2g  To be done

     Representation    20      1 modes -B_2g  To be done

     Representation    21      1 modes -B_2g  To be done

     Representation    22      1 modes -B_2g  To be done

     Representation    23      1 modes -B_2g  To be done

     Representation    24      1 modes -B_3g  To be done

     Representation    25      1 modes -B_3g  To be done

     Representation    26      1 modes -B_3g  To be done

     Representation    27      1 modes -B_3g  To be done

     Representation    28      1 modes -A_u  To be done

     Representation    29      1 modes -A_u  To be done

     Representation    30      1 modes -A_u  To be done

     Representation    31      1 modes -A_u  To be done

     Representation    32      1 modes -B_1u  To be done

     Representation    33      1 modes -B_1u  To be done

     Representation    34      1 modes -B_1u  To be done

     Representation    35      1 modes -B_1u  To be done

     Representation    36      1 modes -B_1u  To be done

     Representation    37      1 modes -B_2u  To be done

     Representation    38      1 modes -B_2u  To be done

     Representation    39      1 modes -B_2u  To be done

     Representation    40      1 modes -B_2u  To be done

     Representation    41      1 modes -B_2u  To be done

     Representation    42      1 modes -B_2u  To be done

     Representation    43      1 modes -B_2u  To be done

     Representation    44      1 modes -B_2u  To be done

     Representation    45      1 modes -B_2u  To be done

     Representation    46      1 modes -B_3u  To be done

     Representation    47      1 modes -B_3u  To be done

     Representation    48      1 modes -B_3u  To be done

     Representation    49      1 modes -B_3u  To be done

     Representation    50      1 modes -B_3u  To be done

     Representation    51      1 modes -B_3u  To be done

     Representation    52      1 modes -B_3u  To be done

     Representation    53      1 modes -B_3u  To be done

     Representation    54      1 modes -B_3u  To be done



     Alpha used in Ewald sum =   1.2000
     PHONON       :    24.95s CPU        25.05s WALL


     Electric Fields Calculation

      iter #   1 total cpu time :    65.0 secs   av.it.:   6.7
      thresh= 1.000E-02 alpha_mix =  0.700 |ddv_scf|^2 =  7.032E-05

      iter #   2 total cpu time :    83.2 secs   av.it.:  10.3
      thresh= 8.385E-04 alpha_mix =  0.700 |ddv_scf|^2 =  6.125E-04

      iter #   3 total cpu time :    98.4 secs   av.it.:   7.7
      thresh= 2.475E-03 alpha_mix =  0.700 |ddv_scf|^2 =  2.395E-06

      iter #   4 total cpu time :   120.1 secs   av.it.:  10.3
      thresh= 1.547E-04 alpha_mix =  0.700 |ddv_scf|^2 =  7.456E-08

      iter #   5 total cpu time :   140.8 secs   av.it.:  10.7
      thresh= 2.731E-05 alpha_mix =  0.700 |ddv_scf|^2 =  2.967E-08

      iter #   6 total cpu time :   162.2 secs   av.it.:  10.0
      thresh= 1.722E-05 alpha_mix =  0.700 |ddv_scf|^2 =  1.794E-09

      iter #   7 total cpu time :   182.5 secs   av.it.:  11.3
      thresh= 4.236E-06 alpha_mix =  0.700 |ddv_scf|^2 =  2.253E-10

      iter #   8 total cpu time :   206.4 secs   av.it.:  11.7
      thresh= 1.501E-06 alpha_mix =  0.700 |ddv_scf|^2 =  3.090E-11

      iter #   9 total cpu time :   231.8 secs   av.it.:  11.3
      thresh= 5.559E-07 alpha_mix =  0.700 |ddv_scf|^2 =  7.952E-12

      iter #  10 total cpu time :   259.4 secs   av.it.:  11.0
      thresh= 2.820E-07 alpha_mix =  0.700 |ddv_scf|^2 =  1.373E-12

      iter #  11 total cpu time :   285.0 secs   av.it.:  11.0
      thresh= 1.172E-07 alpha_mix =  0.700 |ddv_scf|^2 =  4.536E-13

      iter #  12 total cpu time :   311.3 secs   av.it.:  11.3
      thresh= 6.735E-08 alpha_mix =  0.700 |ddv_scf|^2 =  1.028E-13

      iter #  13 total cpu time :   340.7 secs   av.it.:  11.3
      thresh= 3.207E-08 alpha_mix =  0.700 |ddv_scf|^2 =  2.652E-15

     End of electric fields calculation

          Dielectric constant in cartesian axis 

          (      10.617057307       0.000000000       0.000000000 )
          (       0.000000000       2.269357186       0.000000000 )
          (       0.000000000       0.000000000       1.299296016 )

          Effective charges (d Force / dE) in cartesian axis

           atom      1   H  
      Ex  (        0.12384       -0.12041       -0.00000 )
      Ey  (       -0.15922       -0.04163        0.00000 )
      Ez  (       -0.00000        0.00000        0.12322 )
           atom      2   H  
      Ex  (        0.12384        0.12041        0.00000 )
      Ey  (        0.15922       -0.04163       -0.00000 )
      Ez  (       -0.00000        0.00000        0.12322 )
           atom      3   C  
      Ex  (       -0.92554        0.00195        0.00000 )
      Ey  (        0.07278        0.22840       -0.00000 )
      Ez  (        0.00000       -0.00000       -0.12616 )
           atom      4   C  
      Ex  (       -0.92554       -0.00195        0.00000 )
      Ey  (       -0.07278        0.22840       -0.00000 )
      Ez  (        0.00000        0.00000       -0.12616 )
           atom      5   C  
      Ex  (       -0.33975       -0.60456        0.00000 )
      Ey  (       -0.23905       -0.15323        0.00000 )
      Ez  (        0.00000        0.00000        0.02438 )
           atom      6   C  
      Ex  (       -0.33975        0.60456        0.00000 )
      Ey  (        0.23905       -0.15323        0.00000 )
      Ez  (       -0.00000       -0.00000        0.02438 )
           atom      7   C  
      Ex  (       -0.15028       -0.79850       -0.00000 )
      Ey  (       -0.12899       -0.05227       -0.00000 )
      Ez  (        0.00000        0.00000        0.02265 )
           atom      8   C  
      Ex  (       -0.15028        0.79850        0.00000 )
      Ey  (        0.12899       -0.05227        0.00000 )
      Ez  (        0.00000        0.00000        0.02265 )
           atom      9   C  
      Ex  (       -1.25568        0.00000        0.00000 )
      Ey  (        0.00000        0.15879        0.00000 )
      Ez  (        0.00000        0.00000        0.00641 )
           atom     10   C  
      Ex  (       -1.25568        0.00000       -0.00000 )
      Ey  (        0.00000        0.15879        0.00000 )
      Ez  (        0.00000        0.00000        0.00641 )
           atom     11   C  
      Ex  (       -0.15028        0.79850        0.00000 )
      Ey  (        0.12899       -0.05227        0.00000 )
      Ez  (        0.00000       -0.00000        0.02265 )
           atom     12   C  
      Ex  (       -0.15028       -0.79850        0.00000 )
      Ey  (       -0.12899       -0.05227        0.00000 )
      Ez  (        0.00000        0.00000        0.02265 )
           atom     13   C  
      Ex  (       -0.33975        0.60456        0.00000 )
      Ey  (        0.23905       -0.15323        0.00000 )
      Ez  (        0.00000        0.00000        0.02438 )
           atom     14   C  
      Ex  (       -0.33975       -0.60456        0.00000 )
      Ey  (       -0.23905       -0.15323        0.00000 )
      Ez  (        0.00000        0.00000        0.02438 )
           atom     15   C  
      Ex  (       -0.92554       -0.00195       -0.00000 )
      Ey  (       -0.07278        0.22840        0.00000 )
      Ez  (        0.00000        0.00000       -0.12616 )
           atom     16   C  
      Ex  (       -0.92554        0.00195        0.00000 )
      Ey  (        0.07278        0.22840       -0.00000 )
      Ez  (        0.00000        0.00000       -0.12616 )
           atom     17   H  
      Ex  (        0.12384        0.12041       -0.00000 )
      Ey  (        0.15922       -0.04163        0.00000 )
      Ez  (        0.00000       -0.00000        0.12322 )
           atom     18   H  
      Ex  (        0.12384       -0.12041        0.00000 )
      Ey  (       -0.15922       -0.04163        0.00000 )
      Ez  (        0.00000        0.00000        0.12322 )

     Calling punch_plot_e
     Writing on file  gar-w_05-1H-ph.fildrho                                                                                                                                                                                                                                          

     Computing Pc [DH,Drho] |psi> 

     Derivative coefficient:  0.001000    Threshold: 1.00E-12
     Non-scf  u_k: avg # of iterations = 18.6
     Non-scf Du_k: avg # of iterations = 31.0

          Dielectric constant from finite-differences

          (      10.615755010       0.000000000       0.000000000 )
          (       0.000000000       2.269318432       0.000000000 )
          (       0.000000000       0.000000000       1.299302197 )

     Computing Second order response 


      iter #   1   av.it.:   9.3
      thresh= 1.000E-02 alpha_mix =  0.700 |ddv_scf|^2 =  2.087E-04


      iter #   2   av.it.:  10.2
      thresh= 1.445E-03 alpha_mix =  0.700 |ddv_scf|^2 =  6.281E-04


      iter #   3   av.it.:   8.0
      thresh= 2.506E-03 alpha_mix =  0.700 |ddv_scf|^2 =  5.607E-05


      iter #   4   av.it.:   9.5
      thresh= 7.488E-04 alpha_mix =  0.700 |ddv_scf|^2 =  6.590E-06


      iter #   5   av.it.:   9.3
      thresh= 2.567E-04 alpha_mix =  0.700 |ddv_scf|^2 =  1.222E-06


      iter #   6   av.it.:   9.3
      thresh= 1.105E-04 alpha_mix =  0.700 |ddv_scf|^2 =  5.032E-09


      iter #   7   av.it.:  10.3
      thresh= 7.094E-06 alpha_mix =  0.700 |ddv_scf|^2 =  2.172E-10


      iter #   8   av.it.:  11.2
      thresh= 1.474E-06 alpha_mix =  0.700 |ddv_scf|^2 =  1.307E-10


      iter #   9   av.it.:  10.5
      thresh= 1.143E-06 alpha_mix =  0.700 |ddv_scf|^2 =  1.250E-11


      iter #  10   av.it.:  10.8
      thresh= 3.535E-07 alpha_mix =  0.700 |ddv_scf|^2 =  8.306E-12


      iter #  11   av.it.:   9.7
      thresh= 2.882E-07 alpha_mix =  0.700 |ddv_scf|^2 =  9.221E-12


      iter #  12   av.it.:   8.8
      thresh= 3.037E-07 alpha_mix =  0.700 |ddv_scf|^2 =  1.450E-12


      iter #  13   av.it.:   9.8
      thresh= 1.204E-07 alpha_mix =  0.700 |ddv_scf|^2 =  6.027E-14


      iter #  14   av.it.:  10.7
      thresh= 2.455E-08 alpha_mix =  0.700 |ddv_scf|^2 =  6.250E-15

          Raman tensor (au^-1) in cartesian axis 

           atom      1
          (      -0.054830780      -0.019257161       0.000000000 )
          (      -0.019257161      -0.016949335      -0.000000000 )
          (       0.000000000      -0.000000000      -0.000343651 )

          (      -0.011145186      -0.033331367       0.000000000 )
          (      -0.033331367      -0.096130279       0.000000000 )
          (       0.000000000       0.000000000      -0.002553950 )

          (       0.000000000       0.000000000       0.005104586 )
          (       0.000000000       0.000000000      -0.000403220 )
          (       0.005104586      -0.000403220      -0.000000000 )

           atom      2
          (       0.054830780      -0.019257161      -0.000000000 )
          (      -0.019257161       0.016949335       0.000000000 )
          (      -0.000000000       0.000000000       0.000343651 )

          (      -0.011145186       0.033331367       0.000000000 )
          (       0.033331367      -0.096130279       0.000000000 )
          (       0.000000000       0.000000000      -0.002553950 )

          (       0.000000000       0.000000000      -0.005104586 )
          (       0.000000000      -0.000000000      -0.000403220 )
          (      -0.005104586      -0.000403220       0.000000000 )

           atom      3
          (      -0.673440309       0.036773557       0.000000000 )
          (       0.036773557      -0.110529281       0.000000000 )
          (       0.000000000       0.000000000      -0.011278570 )

          (      -0.063091902      -0.091428938       0.000000000 )
          (      -0.091428938       0.013005041       0.000000000 )
          (       0.000000000       0.000000000      -0.001658720 )

          (       0.000000000       0.000000000      -0.024379796 )
          (       0.000000000       0.000000000      -0.026352896 )
          (      -0.024379796      -0.026352896       0.000000000 )

           atom      4
          (       0.673440309       0.036773557      -0.000000000 )
          (       0.036773557       0.110529281       0.000000000 )
          (      -0.000000000       0.000000000       0.011278570 )

          (      -0.063091902       0.091428938      -0.000000000 )
          (       0.091428938       0.013005041       0.000000000 )
          (      -0.000000000       0.000000000      -0.001658720 )

          (       0.000000000       0.000000000       0.024379796 )
          (       0.000000000       0.000000000      -0.026352896 )
          (       0.024379796      -0.026352896       0.000000000 )

           atom      5
          (      -3.479970121      -0.040941693      -0.000000000 )
          (      -0.040941693      -0.134785621       0.000000000 )
          (      -0.000000000       0.000000000       0.001762527 )

          (      -2.507589083       0.168863500       0.000000000 )
          (       0.168863500      -0.143491801      -0.000000000 )
          (       0.000000000      -0.000000000      -0.000361890 )

          (       0.000000000       0.000000000      -0.036710770 )
          (       0.000000000      -0.000000000      -0.009245157 )
          (      -0.036710770      -0.009245157       0.000000000 )

           atom      6
          (       3.479970121      -0.040941693       0.000000000 )
          (      -0.040941693       0.134785621       0.000000000 )
          (       0.000000000       0.000000000      -0.001762527 )

          (      -2.507589083      -0.168863500       0.000000000 )
          (      -0.168863500      -0.143491801       0.000000000 )
          (       0.000000000       0.000000000      -0.000361890 )

          (      -0.000000000       0.000000000       0.036710770 )
          (       0.000000000       0.000000000      -0.009245157 )
          (       0.036710770      -0.009245157       0.000000000 )

           atom      7
          (       2.434392616      -0.000064035       0.000000000 )
          (      -0.000064035       0.049141555       0.000000000 )
          (       0.000000000       0.000000000       0.000912268 )

          (       3.300316676      -0.186647336       0.000000000 )
          (      -0.186647336       0.199446330      -0.000000000 )
          (       0.000000000      -0.000000000       0.000328963 )

          (      -0.000000000       0.000000000       0.027210667 )
          (       0.000000000       0.000000000       0.003112044 )
          (       0.027210667       0.003112044       0.000000000 )

           atom      8
          (      -2.434392616      -0.000064035       0.000000000 )
          (      -0.000064035      -0.049141555       0.000000000 )
          (       0.000000000       0.000000000      -0.000912268 )

          (       3.300316676       0.186647336       0.000000000 )
          (       0.186647336       0.199446330       0.000000000 )
          (       0.000000000       0.000000000       0.000328963 )

          (       0.000000000       0.000000000      -0.027210667 )
          (       0.000000000      -0.000000000       0.003112044 )
          (      -0.027210667       0.003112044       0.000000000 )

           atom      9
          (       3.412514776       0.000000000       0.000000000 )
          (       0.000000000       0.324309496       0.000000000 )
          (       0.000000000       0.000000000      -0.000946479 )

          (       0.000000000       0.208759469      -0.000000000 )
          (       0.208759469       0.000000000      -0.000000000 )
          (      -0.000000000      -0.000000000       0.000000000 )

          (       0.000000000       0.000000000       0.028081862 )
          (       0.000000000       0.000000000       0.000000000 )
          (       0.028081862       0.000000000       0.000000000 )

           atom     10
          (      -3.412514776       0.000000000       0.000000000 )
          (       0.000000000      -0.324309496       0.000000000 )
          (       0.000000000       0.000000000       0.000946479 )

          (       0.000000000      -0.208759469      -0.000000000 )
          (      -0.208759469       0.000000000      -0.000000000 )
          (      -0.000000000      -0.000000000       0.000000000 )

          (       0.000000000       0.000000000      -0.028081862 )
          (       0.000000000       0.000000000       0.000000000 )
          (      -0.028081862       0.000000000       0.000000000 )

           atom     11
          (       2.434392616       0.000064035       0.000000000 )
          (       0.000064035       0.049141555      -0.000000000 )
          (       0.000000000      -0.000000000       0.000912268 )

          (      -3.300316676      -0.186647336       0.000000000 )
          (      -0.186647336      -0.199446330       0.000000000 )
          (       0.000000000       0.000000000      -0.000328963 )

          (      -0.000000000       0.000000000       0.027210667 )
          (       0.000000000       0.000000000      -0.003112044 )
          (       0.027210667      -0.003112044       0.000000000 )

           atom     12
          (      -2.434392616       0.000064035       0.000000000 )
          (       0.000064035      -0.049141555       0.000000000 )
          (       0.000000000       0.000000000      -0.000912268 )

          (      -3.300316676       0.186647336       0.000000000 )
          (       0.186647336      -0.199446330      -0.000000000 )
          (       0.000000000      -0.000000000      -0.000328963 )

          (       0.000000000       0.000000000      -0.027210667 )
          (       0.000000000      -0.000000000      -0.003112044 )
          (      -0.027210667      -0.003112044       0.000000000 )

           atom     13
          (      -3.479970121       0.040941693       0.000000000 )
          (       0.040941693      -0.134785621       0.000000000 )
          (       0.000000000       0.000000000       0.001762527 )

          (       2.507589083       0.168863500       0.000000000 )
          (       0.168863500       0.143491801       0.000000000 )
          (       0.000000000       0.000000000       0.000361890 )

          (      -0.000000000       0.000000000      -0.036710770 )
          (       0.000000000       0.000000000       0.009245157 )
          (      -0.036710770       0.009245157       0.000000000 )

           atom     14
          (       3.479970121       0.040941693       0.000000000 )
          (       0.040941693       0.134785621       0.000000000 )
          (       0.000000000       0.000000000      -0.001762527 )

          (       2.507589083      -0.168863500       0.000000000 )
          (      -0.168863500       0.143491801      -0.000000000 )
          (       0.000000000      -0.000000000       0.000361890 )

          (       0.000000000       0.000000000       0.036710770 )
          (       0.000000000       0.000000000       0.009245157 )
          (       0.036710770       0.009245157       0.000000000 )

           atom     15
          (      -0.673440309      -0.036773557       0.000000000 )
          (      -0.036773557      -0.110529281       0.000000000 )
          (       0.000000000       0.000000000      -0.011278570 )

          (       0.063091902      -0.091428938      -0.000000000 )
          (      -0.091428938      -0.013005041       0.000000000 )
          (      -0.000000000       0.000000000       0.001658720 )

          (       0.000000000       0.000000000      -0.024379796 )
          (       0.000000000      -0.000000000       0.026352896 )
          (      -0.024379796       0.026352896       0.000000000 )

           atom     16
          (       0.673440309      -0.036773557       0.000000000 )
          (      -0.036773557       0.110529281       0.000000000 )
          (       0.000000000       0.000000000       0.011278570 )

          (       0.063091902       0.091428938       0.000000000 )
          (       0.091428938      -0.013005041       0.000000000 )
          (       0.000000000       0.000000000       0.001658720 )

          (       0.000000000       0.000000000       0.024379796 )
          (       0.000000000       0.000000000       0.026352896 )
          (       0.024379796       0.026352896      -0.000000000 )

           atom     17
          (      -0.054830780       0.019257161       0.000000000 )
          (       0.019257161      -0.016949335       0.000000000 )
          (       0.000000000       0.000000000      -0.000343651 )

          (       0.011145186      -0.033331367       0.000000000 )
          (      -0.033331367       0.096130279       0.000000000 )
          (       0.000000000       0.000000000       0.002553950 )

          (       0.000000000      -0.000000000       0.005104586 )
          (      -0.000000000      -0.000000000       0.000403220 )
          (       0.005104586       0.000403220       0.000000000 )

           atom     18
          (       0.054830780       0.019257161       0.000000000 )
          (       0.019257161       0.016949335      -0.000000000 )
          (       0.000000000      -0.000000000       0.000343651 )

          (       0.011145186       0.033331367       0.000000000 )
          (       0.033331367       0.096130279       0.000000000 )
          (       0.000000000       0.000000000       0.002553950 )

          (       0.000000000      -0.000000000      -0.005104586 )
          (      -0.000000000       0.000000000       0.000403220 )
          (      -0.005104586       0.000403220       0.000000000 )


     Raman tensor (A^2)

     atom #    1    pol.  1
     -0.365378091474E+01     -0.128324724617E+01      0.366973062345E-23
     -0.128324724617E+01     -0.112945970954E+01     -0.120278102532E-23
      0.366973062345E-23     -0.120278102532E-23     -0.228999793654E-01
     atom #    1    pol.  2
     -0.742686284631E+00     -0.222111579810E+01      0.192444964051E-22
     -0.222111579810E+01     -0.640587235894E+01      0.000000000000E+00
      0.192444964051E-22      0.000000000000E+00     -0.170188594640E+00
     atom #    1    pol.  3
      0.000000000000E+00      0.000000000000E+00      0.340156357367E+00
      0.000000000000E+00      0.000000000000E+00     -0.268695269323E-01
      0.340156357367E+00     -0.268695269323E-01     -0.260246974698E-24
     atom #    2    pol.  1
      0.365378091474E+01     -0.128324724617E+01     -0.366973062345E-23
     -0.128324724617E+01      0.112945970954E+01      0.601390512660E-24
     -0.366973062345E-23      0.601390512660E-24      0.228999793654E-01
     atom #    2    pol.  2
     -0.742686284631E+00      0.222111579810E+01      0.000000000000E+00
      0.222111579810E+01     -0.640587235894E+01      0.000000000000E+00
      0.000000000000E+00      0.000000000000E+00     -0.170188594640E+00
     atom #    2    pol.  3
      0.000000000000E+00      0.000000000000E+00     -0.340156357367E+00
      0.000000000000E+00     -0.788440538729E-24     -0.268695269323E-01
     -0.340156357367E+00     -0.268695269323E-01      0.000000000000E+00
     atom #    3    pol.  1
     -0.448763148264E+02      0.245049439957E+01      0.000000000000E+00
      0.245049439957E+01     -0.736538450231E+01      0.168389343545E-22
      0.000000000000E+00      0.168389343545E-22     -0.751574618173E+00
     atom #    3    pol.  2
     -0.420428066202E+01     -0.609258717477E+01      0.384889928103E-22
     -0.609258717477E+01      0.866622161063E+00      0.630752430983E-23
      0.384889928103E-22      0.630752430983E-23     -0.110532828931E+00
     atom #    3    pol.  3
      0.117431379950E-21      0.384889928103E-22     -0.162460637718E+01
      0.384889928103E-22      0.000000000000E+00     -0.175608858989E+01
     -0.162460637718E+01     -0.175608858989E+01      0.104098789879E-23
     atom #    4    pol.  1
      0.448763148264E+02      0.245049439957E+01     -0.146789224938E-22
      0.245049439957E+01      0.736538450231E+01      0.962224820256E-23
     -0.146789224938E-22      0.962224820256E-23      0.751574618173E+00
     atom #    4    pol.  2
     -0.420428066202E+01      0.609258717477E+01     -0.153955971241E-21
      0.609258717477E+01      0.866622161063E+00      0.000000000000E+00
     -0.153955971241E-21      0.000000000000E+00     -0.110532828931E+00
     atom #    4    pol.  3
      0.000000000000E+00      0.000000000000E+00      0.162460637718E+01
      0.000000000000E+00      0.000000000000E+00     -0.175608858989E+01
      0.162460637718E+01     -0.175608858989E+01      0.000000000000E+00
     atom #    5    pol.  1
     -0.231896179533E+03     -0.272824821977E+01     -0.293578449876E-22
     -0.272824821977E+01     -0.898176408114E+01      0.192444964051E-22
     -0.293578449876E-22      0.192444964051E-22      0.117450248553E+00
     atom #    5    pol.  2
     -0.167099230192E+03      0.112526254881E+02      0.000000000000E+00
      0.112526254881E+02     -0.956192129332E+01     -0.378451458590E-22
      0.000000000000E+00     -0.378451458590E-22     -0.241154224636E-01
     atom #    5    pol.  3
      0.234862759901E-21      0.000000000000E+00     -0.244631044300E+01
      0.000000000000E+00     -0.126150486197E-22     -0.616073288232E+00
     -0.244631044300E+01     -0.616073288232E+00      0.000000000000E+00
     atom #    6    pol.  1
      0.231896179533E+03     -0.272824821977E+01      0.117431379950E-21
     -0.272824821977E+01      0.898176408114E+01      0.192444964051E-22
      0.117431379950E-21      0.192444964051E-22     -0.117450248553E+00
     atom #    6    pol.  2
     -0.167099230192E+03     -0.112526254881E+02      0.000000000000E+00
     -0.112526254881E+02     -0.956192129332E+01      0.252300972393E-22
      0.000000000000E+00      0.252300972393E-22     -0.241154224636E-01
     atom #    6    pol.  3
     -0.469725519802E-21      0.769779856205E-22      0.244631044300E+01
      0.769779856205E-22      0.126150486197E-22     -0.616073288232E+00
      0.244631044300E+01     -0.616073288232E+00      0.000000000000E+00
     atom #    7    pol.  1
      0.162221607543E+03     -0.426710146255E-02      0.000000000000E+00
     -0.426710146255E-02      0.327466571531E+01      0.000000000000E+00
      0.000000000000E+00      0.000000000000E+00      0.607911849177E-01
     atom #    7    pol.  2
      0.219924540123E+03     -0.124376942045E+02      0.307911942482E-21
     -0.124376942045E+02      0.132905859311E+02     -0.220763350844E-22
      0.307911942482E-21     -0.220763350844E-22      0.219212720143E-01
     atom #    7    pol.  3
     -0.234862759901E-21      0.153955971241E-21      0.181324826447E+01
      0.153955971241E-21      0.000000000000E+00      0.207378541646E+00
      0.181324826447E+01      0.207378541646E+00      0.104098789879E-23
     atom #    8    pol.  1
     -0.162221607543E+03     -0.426710146255E-02      0.000000000000E+00
     -0.426710146255E-02     -0.327466571531E+01      0.511181935761E-23
      0.000000000000E+00      0.511181935761E-23     -0.607911849177E-01
     atom #    8    pol.  2
      0.219924540123E+03      0.124376942045E+02      0.769779856205E-22
      0.124376942045E+02      0.132905859311E+02      0.252300972393E-22
      0.769779856205E-22      0.252300972393E-22      0.219212720143E-01
     atom #    8    pol.  3
      0.000000000000E+00      0.769779856205E-22     -0.181324826447E+01
      0.769779856205E-22     -0.126150486197E-22      0.207378541646E+00
     -0.181324826447E+01      0.207378541646E+00      0.208197579758E-23
     atom #    9    pol.  1
      0.227401130409E+03      0.000000000000E+00      0.000000000000E+00
      0.000000000000E+00      0.216111433697E+02      0.000000000000E+00
      0.000000000000E+00      0.000000000000E+00     -0.630708966585E-01
     atom #    9    pol.  2
      0.000000000000E+00      0.139111893768E+02     -0.307911942482E-21
      0.139111893768E+02      0.000000000000E+00     -0.252300972393E-22
     -0.307911942482E-21     -0.252300972393E-22      0.000000000000E+00
     atom #    9    pol.  3
      0.000000000000E+00      0.384889928103E-22      0.187130243038E+01
      0.384889928103E-22      0.000000000000E+00      0.000000000000E+00
      0.187130243038E+01      0.000000000000E+00      0.000000000000E+00
     atom #   10    pol.  1
     -0.227401130409E+03      0.000000000000E+00      0.000000000000E+00
      0.000000000000E+00     -0.216111433697E+02      0.000000000000E+00
      0.000000000000E+00      0.000000000000E+00      0.630708966585E-01
     atom #   10    pol.  2
      0.000000000000E+00     -0.139111893768E+02     -0.307911942482E-21
     -0.139111893768E+02      0.000000000000E+00     -0.378451458590E-22
     -0.307911942482E-21     -0.378451458590E-22      0.000000000000E+00
     atom #   10    pol.  3
      0.000000000000E+00      0.192444964051E-22     -0.187130243038E+01
      0.192444964051E-22      0.000000000000E+00      0.000000000000E+00
     -0.187130243038E+01      0.000000000000E+00      0.000000000000E+00
     atom #   11    pol.  1
      0.162221607543E+03      0.426710146255E-02      0.000000000000E+00
      0.426710146255E-02      0.327466571531E+01     -0.481112410128E-23
      0.000000000000E+00     -0.481112410128E-23      0.607911849177E-01
     atom #   11    pol.  2
     -0.219924540123E+03     -0.124376942045E+02      0.769779856205E-22
     -0.124376942045E+02     -0.132905859311E+02      0.252300972393E-22
      0.769779856205E-22      0.252300972393E-22     -0.219212720143E-01
     atom #   11    pol.  3
     -0.234862759901E-21      0.192444964051E-21      0.181324826447E+01
      0.192444964051E-21      0.000000000000E+00     -0.207378541646E+00
      0.181324826447E+01     -0.207378541646E+00      0.208197579758E-23
     atom #   12    pol.  1
     -0.162221607543E+03      0.426710146255E-02      0.000000000000E+00
      0.426710146255E-02     -0.327466571531E+01      0.000000000000E+00
      0.000000000000E+00      0.000000000000E+00     -0.607911849177E-01
     atom #   12    pol.  2
     -0.219924540123E+03      0.124376942045E+02      0.307911942482E-21
      0.124376942045E+02     -0.132905859311E+02     -0.252300972393E-22
      0.307911942482E-21     -0.252300972393E-22     -0.219212720143E-01
     atom #   12    pol.  3
      0.234862759901E-21      0.307911942482E-21     -0.181324826447E+01
      0.307911942482E-21     -0.126150486197E-22     -0.207378541646E+00
     -0.181324826447E+01     -0.207378541646E+00      0.000000000000E+00
     atom #   13    pol.  1
     -0.231896179533E+03      0.272824821977E+01      0.117431379950E-21
      0.272824821977E+01     -0.898176408114E+01      0.000000000000E+00
      0.117431379950E-21      0.000000000000E+00      0.117450248553E+00
     atom #   13    pol.  2
      0.167099230192E+03      0.112526254881E+02      0.000000000000E+00
      0.112526254881E+02      0.956192129332E+01      0.252300972393E-22
      0.000000000000E+00      0.252300972393E-22      0.241154224636E-01
     atom #   13    pol.  3
     -0.939451039603E-21      0.769779856205E-22     -0.244631044300E+01
      0.769779856205E-22      0.252300972393E-22      0.616073288232E+00
     -0.244631044300E+01      0.616073288232E+00      0.000000000000E+00
     atom #   14    pol.  1
      0.231896179533E+03      0.272824821977E+01      0.000000000000E+00
      0.272824821977E+01      0.898176408114E+01      0.000000000000E+00
      0.000000000000E+00      0.000000000000E+00     -0.117450248553E+00
     atom #   14    pol.  2
      0.167099230192E+03     -0.112526254881E+02      0.000000000000E+00
     -0.112526254881E+02      0.956192129332E+01     -0.126150486197E-22
      0.000000000000E+00     -0.126150486197E-22      0.241154224636E-01
     atom #   14    pol.  3
      0.939451039603E-21      0.000000000000E+00      0.244631044300E+01
      0.000000000000E+00      0.000000000000E+00      0.616073288232E+00
      0.244631044300E+01      0.616073288232E+00      0.000000000000E+00
     atom #   15    pol.  1
     -0.448763148264E+02     -0.245049439957E+01      0.587156899752E-22
     -0.245049439957E+01     -0.736538450231E+01      0.000000000000E+00
      0.587156899752E-22      0.000000000000E+00     -0.751574618173E+00
     atom #   15    pol.  2
      0.420428066202E+01     -0.609258717477E+01     -0.153955971241E-21
     -0.609258717477E+01     -0.866622161063E+00      0.000000000000E+00
     -0.153955971241E-21      0.000000000000E+00      0.110532828931E+00
     atom #   15    pol.  3
      0.000000000000E+00      0.000000000000E+00     -0.162460637718E+01
      0.000000000000E+00     -0.630752430983E-23      0.175608858989E+01
     -0.162460637718E+01      0.175608858989E+01      0.208197579758E-23
     atom #   16    pol.  1
      0.448763148264E+02     -0.245049439957E+01      0.117431379950E-21
     -0.245049439957E+01      0.736538450231E+01      0.962224820256E-23
      0.117431379950E-21      0.962224820256E-23      0.751574618173E+00
     atom #   16    pol.  2
      0.420428066202E+01      0.609258717477E+01      0.000000000000E+00
      0.609258717477E+01     -0.866622161063E+00      0.630752430983E-23
      0.000000000000E+00      0.630752430983E-23      0.110532828931E+00
     atom #   16    pol.  3
      0.117431379950E-21      0.384889928103E-22      0.162460637718E+01
      0.384889928103E-22      0.630752430983E-23      0.175608858989E+01
      0.162460637718E+01      0.175608858989E+01     -0.104098789879E-23
     atom #   17    pol.  1
     -0.365378091474E+01      0.128324724617E+01      0.000000000000E+00
      0.128324724617E+01     -0.112945970954E+01      0.000000000000E+00
      0.000000000000E+00      0.000000000000E+00     -0.228999793654E-01
     atom #   17    pol.  2
      0.742686284631E+00     -0.222111579810E+01      0.000000000000E+00
     -0.222111579810E+01      0.640587235894E+01      0.000000000000E+00
      0.000000000000E+00      0.000000000000E+00      0.170188594640E+00
     atom #   17    pol.  3
      0.000000000000E+00     -0.384889928103E-22      0.340156357367E+00
     -0.384889928103E-22     -0.788440538729E-24      0.268695269323E-01
      0.340156357367E+00      0.268695269323E-01      0.000000000000E+00
     atom #   18    pol.  1
      0.365378091474E+01      0.128324724617E+01      0.000000000000E+00
      0.128324724617E+01      0.112945970954E+01     -0.120278102532E-23
      0.000000000000E+00     -0.120278102532E-23      0.228999793654E-01
     atom #   18    pol.  2
      0.742686284631E+00      0.222111579810E+01      0.192444964051E-22
      0.222111579810E+01      0.640587235894E+01      0.000000000000E+00
      0.192444964051E-22      0.000000000000E+00      0.170188594640E+00
     atom #   18    pol.  3
      0.000000000000E+00     -0.769779856205E-22     -0.340156357367E+00
     -0.769779856205E-22      0.000000000000E+00      0.268695269323E-01
     -0.340156357367E+00      0.268695269323E-01      0.000000000000E+00


     Representation #  1 mode #   1

     Self-consistent Calculation

      iter #   1 total cpu time :  1749.0 secs   av.it.:   5.5
      thresh= 1.000E-02 alpha_mix =  0.700 |ddv_scf|^2 =  3.537E-07

      iter #   2 total cpu time :  1757.4 secs   av.it.:  11.0
      thresh= 5.948E-05 alpha_mix =  0.700 |ddv_scf|^2 =  1.515E-06

      iter #   3 total cpu time :  1765.0 secs   av.it.:   9.0
      thresh= 1.231E-04 alpha_mix =  0.700 |ddv_scf|^2 =  1.162E-07

      iter #   4 total cpu time :  1773.2 secs   av.it.:  10.0
      thresh= 3.409E-05 alpha_mix =  0.700 |ddv_scf|^2 =  1.110E-09

      iter #   5 total cpu time :  1782.1 secs   av.it.:  10.5
      thresh= 3.331E-06 alpha_mix =  0.700 |ddv_scf|^2 =  1.269E-11

      iter #   6 total cpu time :  1791.1 secs   av.it.:  10.5
      thresh= 3.562E-07 alpha_mix =  0.700 |ddv_scf|^2 =  6.180E-13

      iter #   7 total cpu time :  1799.5 secs   av.it.:  11.0
      thresh= 7.861E-08 alpha_mix =  0.700 |ddv_scf|^2 =  2.576E-13

      iter #   8 total cpu time :  1807.7 secs   av.it.:  10.0
      thresh= 5.076E-08 alpha_mix =  0.700 |ddv_scf|^2 =  3.784E-14

      iter #   9 total cpu time :  1815.6 secs   av.it.:  10.0
      thresh= 1.945E-08 alpha_mix =  0.700 |ddv_scf|^2 =  9.192E-16

     End of self-consistent calculation

     Convergence has been achieved 


     Representation #  2 mode #   2

     Self-consistent Calculation

      iter #   1 total cpu time :  1823.1 secs   av.it.:   3.5
      thresh= 1.000E-02 alpha_mix =  0.700 |ddv_scf|^2 =  1.078E-08

      iter #   2 total cpu time :  1831.6 secs   av.it.:  11.0
      thresh= 1.038E-05 alpha_mix =  0.700 |ddv_scf|^2 =  5.565E-08

      iter #   3 total cpu time :  1839.5 secs   av.it.:   9.0
      thresh= 2.359E-05 alpha_mix =  0.700 |ddv_scf|^2 =  9.139E-10

      iter #   4 total cpu time :  1848.6 secs   av.it.:  11.0
      thresh= 3.023E-06 alpha_mix =  0.700 |ddv_scf|^2 =  3.630E-10

      iter #   5 total cpu time :  1857.0 secs   av.it.:  10.0
      thresh= 1.905E-06 alpha_mix =  0.700 |ddv_scf|^2 =  4.290E-11

      iter #   6 total cpu time :  1864.7 secs   av.it.:  10.0
      thresh= 6.550E-07 alpha_mix =  0.700 |ddv_scf|^2 =  4.786E-13

      iter #   7 total cpu time :  1873.3 secs   av.it.:  11.0
      thresh= 6.918E-08 alpha_mix =  0.700 |ddv_scf|^2 =  1.611E-13

      iter #   8 total cpu time :  1881.1 secs   av.it.:  10.5
      thresh= 4.014E-08 alpha_mix =  0.700 |ddv_scf|^2 =  2.852E-14

      iter #   9 total cpu time :  1889.6 secs   av.it.:  10.5
      thresh= 1.689E-08 alpha_mix =  0.700 |ddv_scf|^2 =  4.419E-15

     End of self-consistent calculation

     Convergence has been achieved 


     Representation #  3 mode #   3

     Self-consistent Calculation

      iter #   1 total cpu time :  1897.6 secs   av.it.:   5.0
      thresh= 1.000E-02 alpha_mix =  0.700 |ddv_scf|^2 =  1.979E-07

      iter #   2 total cpu time :  1906.5 secs   av.it.:  11.0
      thresh= 4.449E-05 alpha_mix =  0.700 |ddv_scf|^2 =  1.497E-07

      iter #   3 total cpu time :  1915.1 secs   av.it.:  10.5
      thresh= 3.869E-05 alpha_mix =  0.700 |ddv_scf|^2 =  1.122E-08

      iter #   4 total cpu time :  1923.3 secs   av.it.:  10.0
      thresh= 1.059E-05 alpha_mix =  0.700 |ddv_scf|^2 =  7.239E-09

      iter #   5 total cpu time :  1930.8 secs   av.it.:   9.5
      thresh= 8.508E-06 alpha_mix =  0.700 |ddv_scf|^2 =  6.521E-11

      iter #   6 total cpu time :  1938.2 secs   av.it.:  10.5
      thresh= 8.076E-07 alpha_mix =  0.700 |ddv_scf|^2 =  3.280E-11

      iter #   7 total cpu time :  1945.7 secs   av.it.:  10.0
      thresh= 5.727E-07 alpha_mix =  0.700 |ddv_scf|^2 =  4.454E-13

      iter #   8 total cpu time :  1954.5 secs   av.it.:  11.0
      thresh= 6.674E-08 alpha_mix =  0.700 |ddv_scf|^2 =  3.079E-13

      iter #   9 total cpu time :  1961.4 secs   av.it.:  10.0
      thresh= 5.549E-08 alpha_mix =  0.700 |ddv_scf|^2 =  4.121E-15

     End of self-consistent calculation

     Convergence has been achieved 


     Representation #  4 mode #   4

     Self-consistent Calculation

      iter #   1 total cpu time :  1967.5 secs   av.it.:   5.5
      thresh= 1.000E-02 alpha_mix =  0.700 |ddv_scf|^2 =  5.785E-06

      iter #   2 total cpu time :  1974.3 secs   av.it.:  10.0
      thresh= 2.405E-04 alpha_mix =  0.700 |ddv_scf|^2 =  4.508E-05

      iter #   3 total cpu time :  1980.1 secs   av.it.:   8.5
      thresh= 6.714E-04 alpha_mix =  0.700 |ddv_scf|^2 =  2.818E-08

      iter #   4 total cpu time :  1987.3 secs   av.it.:  10.5
      thresh= 1.679E-05 alpha_mix =  0.700 |ddv_scf|^2 =  5.706E-09

      iter #   5 total cpu time :  1994.9 secs   av.it.:  10.0
      thresh= 7.554E-06 alpha_mix =  0.700 |ddv_scf|^2 =  2.929E-11

      iter #   6 total cpu time :  2002.3 secs   av.it.:  10.5
      thresh= 5.412E-07 alpha_mix =  0.700 |ddv_scf|^2 =  5.336E-12

      iter #   7 total cpu time :  2009.1 secs   av.it.:  10.5
      thresh= 2.310E-07 alpha_mix =  0.700 |ddv_scf|^2 =  7.608E-13

      iter #   8 total cpu time :  2016.0 secs   av.it.:  10.0
      thresh= 8.722E-08 alpha_mix =  0.700 |ddv_scf|^2 =  4.422E-14

      iter #   9 total cpu time :  2023.3 secs   av.it.:  10.0
      thresh= 2.103E-08 alpha_mix =  0.700 |ddv_scf|^2 =  3.881E-15

     End of self-consistent calculation

     Convergence has been achieved 


     Representation #  5 mode #   5

     Self-consistent Calculation

      iter #   1 total cpu time :  2030.3 secs   av.it.:   5.5
      thresh= 1.000E-02 alpha_mix =  0.700 |ddv_scf|^2 =  3.876E-06

      iter #   2 total cpu time :  2038.0 secs   av.it.:  10.5
      thresh= 1.969E-04 alpha_mix =  0.700 |ddv_scf|^2 =  3.413E-05

      iter #   3 total cpu time :  2044.5 secs   av.it.:   8.5
      thresh= 5.842E-04 alpha_mix =  0.700 |ddv_scf|^2 =  6.718E-08

      iter #   4 total cpu time :  2052.7 secs   av.it.:  10.5
      thresh= 2.592E-05 alpha_mix =  0.700 |ddv_scf|^2 =  5.222E-09

      iter #   5 total cpu time :  2061.1 secs   av.it.:  10.0
      thresh= 7.226E-06 alpha_mix =  0.700 |ddv_scf|^2 =  2.878E-11

      iter #   6 total cpu time :  2069.8 secs   av.it.:  11.0
      thresh= 5.364E-07 alpha_mix =  0.700 |ddv_scf|^2 =  1.082E-11

      iter #   7 total cpu time :  2078.0 secs   av.it.:  10.5
      thresh= 3.289E-07 alpha_mix =  0.700 |ddv_scf|^2 =  6.504E-13

      iter #   8 total cpu time :  2087.1 secs   av.it.:  11.0
      thresh= 8.065E-08 alpha_mix =  0.700 |ddv_scf|^2 =  1.033E-12

      iter #   9 total cpu time :  2094.9 secs   av.it.:   9.5
      thresh= 1.016E-07 alpha_mix =  0.700 |ddv_scf|^2 =  5.329E-14

      iter #  10 total cpu time :  2102.8 secs   av.it.:  11.0
      thresh= 2.309E-08 alpha_mix =  0.700 |ddv_scf|^2 =  1.975E-13

      iter #  11 total cpu time :  2110.0 secs   av.it.:   9.5
      thresh= 4.444E-08 alpha_mix =  0.700 |ddv_scf|^2 =  4.005E-15

     End of self-consistent calculation

     Convergence has been achieved 


     Representation #  6 mode #   6

     Self-consistent Calculation

      iter #   1 total cpu time :  2117.3 secs   av.it.:   5.5
      thresh= 1.000E-02 alpha_mix =  0.700 |ddv_scf|^2 =  1.787E-06

      iter #   2 total cpu time :  2124.7 secs   av.it.:  10.5
      thresh= 1.337E-04 alpha_mix =  0.700 |ddv_scf|^2 =  5.335E-06

      iter #   3 total cpu time :  2131.1 secs   av.it.:   9.0
      thresh= 2.310E-04 alpha_mix =  0.700 |ddv_scf|^2 =  3.190E-07

      iter #   4 total cpu time :  2137.2 secs   av.it.:   9.5
      thresh= 5.648E-05 alpha_mix =  0.700 |ddv_scf|^2 =  3.485E-09

      iter #   5 total cpu time :  2144.8 secs   av.it.:  10.5
      thresh= 5.904E-06 alpha_mix =  0.700 |ddv_scf|^2 =  4.017E-10

      iter #   6 total cpu time :  2151.3 secs   av.it.:  10.0
      thresh= 2.004E-06 alpha_mix =  0.700 |ddv_scf|^2 =  1.139E-11

      iter #   7 total cpu time :  2158.0 secs   av.it.:  10.5
      thresh= 3.376E-07 alpha_mix =  0.700 |ddv_scf|^2 =  1.246E-12

      iter #   8 total cpu time :  2165.1 secs   av.it.:  11.0
      thresh= 1.116E-07 alpha_mix =  0.700 |ddv_scf|^2 =  1.348E-13

      iter #   9 total cpu time :  2171.7 secs   av.it.:  10.5
      thresh= 3.671E-08 alpha_mix =  0.700 |ddv_scf|^2 =  1.029E-14

      iter #  10 total cpu time :  2178.0 secs   av.it.:  10.5
      thresh= 1.014E-08 alpha_mix =  0.700 |ddv_scf|^2 =  1.178E-15

     End of self-consistent calculation

     Convergence has been achieved 


     Representation #  7 mode #   7

     Self-consistent Calculation

      iter #   1 total cpu time :  2183.7 secs   av.it.:   4.0
      thresh= 1.000E-02 alpha_mix =  0.700 |ddv_scf|^2 =  3.038E-08

      iter #   2 total cpu time :  2190.5 secs   av.it.:  10.5
      thresh= 1.743E-05 alpha_mix =  0.700 |ddv_scf|^2 =  6.043E-08

      iter #   3 total cpu time :  2197.0 secs   av.it.:   9.0
      thresh= 2.458E-05 alpha_mix =  0.700 |ddv_scf|^2 =  1.883E-08

      iter #   4 total cpu time :  2204.1 secs   av.it.:   9.0
      thresh= 1.372E-05 alpha_mix =  0.700 |ddv_scf|^2 =  4.704E-11

      iter #   5 total cpu time :  2211.8 secs   av.it.:  11.0
      thresh= 6.858E-07 alpha_mix =  0.700 |ddv_scf|^2 =  1.053E-11

      iter #   6 total cpu time :  2219.3 secs   av.it.:  10.5
      thresh= 3.246E-07 alpha_mix =  0.700 |ddv_scf|^2 =  1.231E-12

      iter #   7 total cpu time :  2227.0 secs   av.it.:  10.5
      thresh= 1.109E-07 alpha_mix =  0.700 |ddv_scf|^2 =  4.066E-14

      iter #   8 total cpu time :  2234.5 secs   av.it.:  11.0
      thresh= 2.016E-08 alpha_mix =  0.700 |ddv_scf|^2 =  6.293E-14

      iter #   9 total cpu time :  2240.9 secs   av.it.:   9.5
      thresh= 2.509E-08 alpha_mix =  0.700 |ddv_scf|^2 =  1.699E-14

      iter #  10 total cpu time :  2247.4 secs   av.it.:  10.0
      thresh= 1.303E-08 alpha_mix =  0.700 |ddv_scf|^2 =  5.868E-16

     End of self-consistent calculation

     Convergence has been achieved 


     Representation #  8 mode #   8

     Self-consistent Calculation

      iter #   1 total cpu time :  2253.3 secs   av.it.:   5.5
      thresh= 1.000E-02 alpha_mix =  0.700 |ddv_scf|^2 =  6.024E-07

      iter #   2 total cpu time :  2260.1 secs   av.it.:  10.5
      thresh= 7.762E-05 alpha_mix =  0.700 |ddv_scf|^2 =  8.331E-07

      iter #   3 total cpu time :  2267.1 secs   av.it.:   9.5
      thresh= 9.127E-05 alpha_mix =  0.700 |ddv_scf|^2 =  1.683E-07

      iter #   4 total cpu time :  2274.1 secs   av.it.:   9.0
      thresh= 4.102E-05 alpha_mix =  0.700 |ddv_scf|^2 =  2.306E-09

      iter #   5 total cpu time :  2282.0 secs   av.it.:  10.0
      thresh= 4.802E-06 alpha_mix =  0.700 |ddv_scf|^2 =  1.515E-10

      iter #   6 total cpu time :  2289.8 secs   av.it.:  10.0
      thresh= 1.231E-06 alpha_mix =  0.700 |ddv_scf|^2 =  3.026E-12

      iter #   7 total cpu time :  2298.0 secs   av.it.:  10.5
      thresh= 1.740E-07 alpha_mix =  0.700 |ddv_scf|^2 =  1.286E-12

      iter #   8 total cpu time :  2306.4 secs   av.it.:  10.5
      thresh= 1.134E-07 alpha_mix =  0.700 |ddv_scf|^2 =  1.533E-13

      iter #   9 total cpu time :  2314.6 secs   av.it.:  10.5
      thresh= 3.915E-08 alpha_mix =  0.700 |ddv_scf|^2 =  2.537E-14

      iter #  10 total cpu time :  2321.6 secs   av.it.:  10.0
      thresh= 1.593E-08 alpha_mix =  0.700 |ddv_scf|^2 =  1.876E-15

     End of self-consistent calculation

     Convergence has been achieved 


     Representation #  9 mode #   9

     Self-consistent Calculation

      iter #   1 total cpu time :  2328.3 secs   av.it.:   5.5
      thresh= 1.000E-02 alpha_mix =  0.700 |ddv_scf|^2 =  2.384E-07

      iter #   2 total cpu time :  2337.5 secs   av.it.:  11.0
      thresh= 4.882E-05 alpha_mix =  0.700 |ddv_scf|^2 =  3.166E-07

      iter #   3 total cpu time :  2345.8 secs   av.it.:  10.0
      thresh= 5.627E-05 alpha_mix =  0.700 |ddv_scf|^2 =  5.307E-08

      iter #   4 total cpu time :  2353.2 secs   av.it.:   9.5
      thresh= 2.304E-05 alpha_mix =  0.700 |ddv_scf|^2 =  3.557E-09

      iter #   5 total cpu time :  2361.5 secs   av.it.:  10.0
      thresh= 5.964E-06 alpha_mix =  0.700 |ddv_scf|^2 =  4.587E-10

      iter #   6 total cpu time :  2369.6 secs   av.it.:  10.0
      thresh= 2.142E-06 alpha_mix =  0.700 |ddv_scf|^2 =  1.746E-11

      iter #   7 total cpu time :  2377.6 secs   av.it.:  10.5
      thresh= 4.178E-07 alpha_mix =  0.700 |ddv_scf|^2 =  2.779E-12

      iter #   8 total cpu time :  2386.1 secs   av.it.:  10.5
      thresh= 1.667E-07 alpha_mix =  0.700 |ddv_scf|^2 =  2.941E-13

      iter #   9 total cpu time :  2395.3 secs   av.it.:  10.0
      thresh= 5.423E-08 alpha_mix =  0.700 |ddv_scf|^2 =  7.663E-15

     End of self-consistent calculation

     Convergence has been achieved 


     Representation # 10 mode #  10

     Self-consistent Calculation

      iter #   1 total cpu time :  2405.3 secs   av.it.:   5.0
      thresh= 1.000E-02 alpha_mix =  0.700 |ddv_scf|^2 =  1.102E-07

      iter #   2 total cpu time :  2415.0 secs   av.it.:  11.0
      thresh= 3.319E-05 alpha_mix =  0.700 |ddv_scf|^2 =  1.410E-07

      iter #   3 total cpu time :  2423.5 secs   av.it.:  10.5
      thresh= 3.755E-05 alpha_mix =  0.700 |ddv_scf|^2 =  3.359E-10

      iter #   4 total cpu time :  2432.0 secs   av.it.:  11.0
      thresh= 1.833E-06 alpha_mix =  0.700 |ddv_scf|^2 =  6.686E-11

      iter #   5 total cpu time :  2440.5 secs   av.it.:  11.0
      thresh= 8.177E-07 alpha_mix =  0.700 |ddv_scf|^2 =  1.686E-12

      iter #   6 total cpu time :  2448.9 secs   av.it.:  11.0
      thresh= 1.299E-07 alpha_mix =  0.700 |ddv_scf|^2 =  3.124E-14

      iter #   7 total cpu time :  2457.2 secs   av.it.:  11.0
      thresh= 1.767E-08 alpha_mix =  0.700 |ddv_scf|^2 =  8.436E-15

     End of self-consistent calculation

     Convergence has been achieved 


     Representation # 11 mode #  11

     Self-consistent Calculation

      iter #   1 total cpu time :  2463.8 secs   av.it.:   5.0
      thresh= 1.000E-02 alpha_mix =  0.700 |ddv_scf|^2 =  7.795E-08

      iter #   2 total cpu time :  2472.5 secs   av.it.:  11.0
      thresh= 2.792E-05 alpha_mix =  0.700 |ddv_scf|^2 =  7.604E-08

      iter #   3 total cpu time :  2480.4 secs   av.it.:  10.5
      thresh= 2.757E-05 alpha_mix =  0.700 |ddv_scf|^2 =  7.188E-10

      iter #   4 total cpu time :  2489.0 secs   av.it.:  11.0
      thresh= 2.681E-06 alpha_mix =  0.700 |ddv_scf|^2 =  8.258E-11

      iter #   5 total cpu time :  2497.6 secs   av.it.:  11.0
      thresh= 9.088E-07 alpha_mix =  0.700 |ddv_scf|^2 =  1.622E-12

      iter #   6 total cpu time :  2505.8 secs   av.it.:  11.0
      thresh= 1.273E-07 alpha_mix =  0.700 |ddv_scf|^2 =  1.554E-13

      iter #   7 total cpu time :  2514.3 secs   av.it.:  11.0
      thresh= 3.942E-08 alpha_mix =  0.700 |ddv_scf|^2 =  9.448E-15

     End of self-consistent calculation

     Convergence has been achieved 


     Representation # 12 mode #  12

     Self-consistent Calculation

      iter #   1 total cpu time :  2520.1 secs   av.it.:   5.0
      thresh= 1.000E-02 alpha_mix =  0.700 |ddv_scf|^2 =  3.693E-08

      iter #   2 total cpu time :  2526.8 secs   av.it.:  11.5
      thresh= 1.922E-05 alpha_mix =  0.700 |ddv_scf|^2 =  2.400E-08

      iter #   3 total cpu time :  2533.0 secs   av.it.:  11.0
      thresh= 1.549E-05 alpha_mix =  0.700 |ddv_scf|^2 =  4.364E-10

      iter #   4 total cpu time :  2538.8 secs   av.it.:  11.0
      thresh= 2.089E-06 alpha_mix =  0.700 |ddv_scf|^2 =  9.425E-11

      iter #   5 total cpu time :  2545.2 secs   av.it.:  11.0
      thresh= 9.708E-07 alpha_mix =  0.700 |ddv_scf|^2 =  2.047E-12

      iter #   6 total cpu time :  2551.6 secs   av.it.:  11.0
      thresh= 1.431E-07 alpha_mix =  0.700 |ddv_scf|^2 =  1.356E-13

      iter #   7 total cpu time :  2557.6 secs   av.it.:  11.0
      thresh= 3.683E-08 alpha_mix =  0.700 |ddv_scf|^2 =  7.484E-16

     End of self-consistent calculation

     Convergence has been achieved 


     Representation # 13 mode #  13

     Self-consistent Calculation

      iter #   1 total cpu time :  2561.9 secs   av.it.:   4.0
      thresh= 1.000E-02 alpha_mix =  0.700 |ddv_scf|^2 =  1.220E-08

      iter #   2 total cpu time :  2568.8 secs   av.it.:  11.0
      thresh= 1.105E-05 alpha_mix =  0.700 |ddv_scf|^2 =  1.486E-08

      iter #   3 total cpu time :  2575.6 secs   av.it.:  10.5
      thresh= 1.219E-05 alpha_mix =  0.700 |ddv_scf|^2 =  9.494E-11

      iter #   4 total cpu time :  2582.5 secs   av.it.:  11.0
      thresh= 9.744E-07 alpha_mix =  0.700 |ddv_scf|^2 =  2.199E-11

      iter #   5 total cpu time :  2589.3 secs   av.it.:  11.0
      thresh= 4.689E-07 alpha_mix =  0.700 |ddv_scf|^2 =  1.497E-13

      iter #   6 total cpu time :  2596.0 secs   av.it.:  11.0
      thresh= 3.869E-08 alpha_mix =  0.700 |ddv_scf|^2 =  1.161E-14

      iter #   7 total cpu time :  2603.1 secs   av.it.:  11.0
      thresh= 1.077E-08 alpha_mix =  0.700 |ddv_scf|^2 =  1.862E-15

     End of self-consistent calculation

     Convergence has been achieved 


     Representation # 14 mode #  14

     Self-consistent Calculation

      iter #   1 total cpu time :  2608.7 secs   av.it.:   5.0
      thresh= 1.000E-02 alpha_mix =  0.700 |ddv_scf|^2 =  6.228E-08

      iter #   2 total cpu time :  2616.0 secs   av.it.:  11.5
      thresh= 2.496E-05 alpha_mix =  0.700 |ddv_scf|^2 =  4.587E-08

      iter #   3 total cpu time :  2623.0 secs   av.it.:  11.0
      thresh= 2.142E-05 alpha_mix =  0.700 |ddv_scf|^2 =  6.922E-10

      iter #   4 total cpu time :  2630.1 secs   av.it.:  11.0
      thresh= 2.631E-06 alpha_mix =  0.700 |ddv_scf|^2 =  1.532E-10

      iter #   5 total cpu time :  2637.9 secs   av.it.:  11.0
      thresh= 1.238E-06 alpha_mix =  0.700 |ddv_scf|^2 =  1.910E-12

      iter #   6 total cpu time :  2645.7 secs   av.it.:  11.0
      thresh= 1.382E-07 alpha_mix =  0.700 |ddv_scf|^2 =  2.181E-13

      iter #   7 total cpu time :  2653.7 secs   av.it.:  11.0
      thresh= 4.671E-08 alpha_mix =  0.700 |ddv_scf|^2 =  4.009E-15

     End of self-consistent calculation

     Convergence has been achieved 


     Representation # 15 mode #  15

     Self-consistent Calculation

      iter #   1 total cpu time :  2659.8 secs   av.it.:   5.0
      thresh= 1.000E-02 alpha_mix =  0.700 |ddv_scf|^2 =  7.247E-08

      iter #   2 total cpu time :  2667.3 secs   av.it.:  11.0
      thresh= 2.692E-05 alpha_mix =  0.700 |ddv_scf|^2 =  6.925E-08

      iter #   3 total cpu time :  2675.2 secs   av.it.:  11.0
      thresh= 2.632E-05 alpha_mix =  0.700 |ddv_scf|^2 =  9.012E-10

      iter #   4 total cpu time :  2683.0 secs   av.it.:  11.0
      thresh= 3.002E-06 alpha_mix =  0.700 |ddv_scf|^2 =  1.336E-10

      iter #   5 total cpu time :  2690.7 secs   av.it.:  11.0
      thresh= 1.156E-06 alpha_mix =  0.700 |ddv_scf|^2 =  1.603E-12

      iter #   6 total cpu time :  2698.8 secs   av.it.:  11.0
      thresh= 1.266E-07 alpha_mix =  0.700 |ddv_scf|^2 =  2.818E-13

      iter #   7 total cpu time :  2706.2 secs   av.it.:  11.0
      thresh= 5.309E-08 alpha_mix =  0.700 |ddv_scf|^2 =  7.746E-15

     End of self-consistent calculation

     Convergence has been achieved 


     Representation # 16 mode #  16

     Self-consistent Calculation

      iter #   1 total cpu time :  2713.2 secs   av.it.:   5.0
      thresh= 1.000E-02 alpha_mix =  0.700 |ddv_scf|^2 =  6.685E-08

      iter #   2 total cpu time :  2720.7 secs   av.it.:  11.0
      thresh= 2.585E-05 alpha_mix =  0.700 |ddv_scf|^2 =  5.762E-08

      iter #   3 total cpu time :  2728.1 secs   av.it.:  10.5
      thresh= 2.400E-05 alpha_mix =  0.700 |ddv_scf|^2 =  7.309E-10

      iter #   4 total cpu time :  2735.5 secs   av.it.:  11.0
      thresh= 2.703E-06 alpha_mix =  0.700 |ddv_scf|^2 =  1.172E-10

      iter #   5 total cpu time :  2742.3 secs   av.it.:  11.0
      thresh= 1.082E-06 alpha_mix =  0.700 |ddv_scf|^2 =  1.336E-12

      iter #   6 total cpu time :  2749.6 secs   av.it.:  10.5
      thresh= 1.156E-07 alpha_mix =  0.700 |ddv_scf|^2 =  1.681E-14

      iter #   7 total cpu time :  2757.1 secs   av.it.:  11.0
      thresh= 1.297E-08 alpha_mix =  0.700 |ddv_scf|^2 =  5.879E-15

     End of self-consistent calculation

     Convergence has been achieved 


     Representation # 17 mode #  17

     Self-consistent Calculation

      iter #   1 total cpu time :  2763.4 secs   av.it.:   5.0
      thresh= 1.000E-02 alpha_mix =  0.700 |ddv_scf|^2 =  3.628E-08

      iter #   2 total cpu time :  2770.5 secs   av.it.:  11.0
      thresh= 1.905E-05 alpha_mix =  0.700 |ddv_scf|^2 =  1.100E-08

      iter #   3 total cpu time :  2777.4 secs   av.it.:  11.0
      thresh= 1.049E-05 alpha_mix =  0.700 |ddv_scf|^2 =  8.573E-10

      iter #   4 total cpu time :  2784.5 secs   av.it.:  11.0
      thresh= 2.928E-06 alpha_mix =  0.700 |ddv_scf|^2 =  1.316E-10

      iter #   5 total cpu time :  2791.2 secs   av.it.:  10.5
      thresh= 1.147E-06 alpha_mix =  0.700 |ddv_scf|^2 =  2.989E-12

      iter #   6 total cpu time :  2797.4 secs   av.it.:  10.5
      thresh= 1.729E-07 alpha_mix =  0.700 |ddv_scf|^2 =  5.159E-14

      iter #   7 total cpu time :  2803.8 secs   av.it.:  11.0
      thresh= 2.271E-08 alpha_mix =  0.700 |ddv_scf|^2 =  6.478E-15

     End of self-consistent calculation

     Convergence has been achieved 


     Representation # 18 mode #  18

     Self-consistent Calculation

      iter #   1 total cpu time :  2808.9 secs   av.it.:   3.0
      thresh= 1.000E-02 alpha_mix =  0.700 |ddv_scf|^2 =  5.006E-10

      iter #   2 total cpu time :  2816.3 secs   av.it.:  11.0
      thresh= 2.238E-06 alpha_mix =  0.700 |ddv_scf|^2 =  1.339E-10

      iter #   3 total cpu time :  2823.7 secs   av.it.:  11.0
      thresh= 1.157E-06 alpha_mix =  0.700 |ddv_scf|^2 =  5.901E-11

      iter #   4 total cpu time :  2830.9 secs   av.it.:  10.5
      thresh= 7.682E-07 alpha_mix =  0.700 |ddv_scf|^2 =  5.172E-13

      iter #   5 total cpu time :  2838.5 secs   av.it.:  11.0
      thresh= 7.192E-08 alpha_mix =  0.700 |ddv_scf|^2 =  1.770E-13

      iter #   6 total cpu time :  2846.4 secs   av.it.:  11.0
      thresh= 4.207E-08 alpha_mix =  0.700 |ddv_scf|^2 =  2.367E-15

     End of self-consistent calculation

     Convergence has been achieved 


     Representation # 19 mode #  19

     Self-consistent Calculation

      iter #   1 total cpu time :  2852.9 secs   av.it.:   5.0
      thresh= 1.000E-02 alpha_mix =  0.700 |ddv_scf|^2 =  1.553E-08

      iter #   2 total cpu time :  2859.8 secs   av.it.:  11.5
      thresh= 1.246E-05 alpha_mix =  0.700 |ddv_scf|^2 =  2.200E-10

      iter #   3 total cpu time :  2866.3 secs   av.it.:  11.0
      thresh= 1.483E-06 alpha_mix =  0.700 |ddv_scf|^2 =  1.498E-11

      iter #   4 total cpu time :  2872.6 secs   av.it.:  10.0
      thresh= 3.870E-07 alpha_mix =  0.700 |ddv_scf|^2 =  1.428E-13

      iter #   5 total cpu time :  2879.8 secs   av.it.:  11.0
      thresh= 3.778E-08 alpha_mix =  0.700 |ddv_scf|^2 =  8.583E-16

     End of self-consistent calculation

     Convergence has been achieved 


     Representation # 20 mode #  20

     Self-consistent Calculation

      iter #   1 total cpu time :  2886.4 secs   av.it.:   5.0
      thresh= 1.000E-02 alpha_mix =  0.700 |ddv_scf|^2 =  1.712E-08

      iter #   2 total cpu time :  2893.5 secs   av.it.:  11.0
      thresh= 1.308E-05 alpha_mix =  0.700 |ddv_scf|^2 =  2.842E-10

      iter #   3 total cpu time :  2899.8 secs   av.it.:  11.0
      thresh= 1.686E-06 alpha_mix =  0.700 |ddv_scf|^2 =  1.507E-11

      iter #   4 total cpu time :  2905.6 secs   av.it.:  10.0
      thresh= 3.881E-07 alpha_mix =  0.700 |ddv_scf|^2 =  2.333E-13

      iter #   5 total cpu time :  2911.7 secs   av.it.:  10.5
      thresh= 4.830E-08 alpha_mix =  0.700 |ddv_scf|^2 =  7.252E-16

     End of self-consistent calculation

     Convergence has been achieved 


     Representation # 21 mode #  21

     Self-consistent Calculation

      iter #   1 total cpu time :  2916.7 secs   av.it.:   3.0
      thresh= 1.000E-02 alpha_mix =  0.700 |ddv_scf|^2 =  8.587E-10

      iter #   2 total cpu time :  2923.4 secs   av.it.:  11.0
      thresh= 2.930E-06 alpha_mix =  0.700 |ddv_scf|^2 =  1.808E-11

      iter #   3 total cpu time :  2930.7 secs   av.it.:  11.0
      thresh= 4.252E-07 alpha_mix =  0.700 |ddv_scf|^2 =  1.019E-12

      iter #   4 total cpu time :  2938.0 secs   av.it.:  11.0
      thresh= 1.010E-07 alpha_mix =  0.700 |ddv_scf|^2 =  1.492E-14

      iter #   5 total cpu time :  2945.4 secs   av.it.:  11.0
      thresh= 1.222E-08 alpha_mix =  0.700 |ddv_scf|^2 =  3.629E-16

     End of self-consistent calculation

     Convergence has been achieved 


     Representation # 22 mode #  22

     Self-consistent Calculation

      iter #   1 total cpu time :  2951.9 secs   av.it.:   5.0
      thresh= 1.000E-02 alpha_mix =  0.700 |ddv_scf|^2 =  2.075E-08

      iter #   2 total cpu time :  2960.1 secs   av.it.:  11.0
      thresh= 1.441E-05 alpha_mix =  0.700 |ddv_scf|^2 =  3.735E-10

      iter #   3 total cpu time :  2967.7 secs   av.it.:  11.0
      thresh= 1.933E-06 alpha_mix =  0.700 |ddv_scf|^2 =  1.449E-11

      iter #   4 total cpu time :  2975.2 secs   av.it.:  10.0
      thresh= 3.807E-07 alpha_mix =  0.700 |ddv_scf|^2 =  1.481E-13

      iter #   5 total cpu time :  2982.8 secs   av.it.:  10.5
      thresh= 3.848E-08 alpha_mix =  0.700 |ddv_scf|^2 =  6.644E-16

     End of self-consistent calculation

     Convergence has been achieved 


     Representation # 23 mode #  23

     Self-consistent Calculation

      iter #   1 total cpu time :  2990.1 secs   av.it.:   5.0
      thresh= 1.000E-02 alpha_mix =  0.700 |ddv_scf|^2 =  1.764E-08

      iter #   2 total cpu time :  2999.0 secs   av.it.:  11.0
      thresh= 1.328E-05 alpha_mix =  0.700 |ddv_scf|^2 =  2.707E-10

      iter #   3 total cpu time :  3007.7 secs   av.it.:  11.0
      thresh= 1.645E-06 alpha_mix =  0.700 |ddv_scf|^2 =  1.362E-11

      iter #   4 total cpu time :  3016.0 secs   av.it.:  10.0
      thresh= 3.691E-07 alpha_mix =  0.700 |ddv_scf|^2 =  2.672E-13

      iter #   5 total cpu time :  3023.0 secs   av.it.:  10.5
      thresh= 5.169E-08 alpha_mix =  0.700 |ddv_scf|^2 =  6.916E-16

     End of self-consistent calculation

     Convergence has been achieved 


     Representation # 24 mode #  24

     Self-consistent Calculation

      iter #   1 total cpu time :  3029.8 secs   av.it.:   5.5
      thresh= 1.000E-02 alpha_mix =  0.700 |ddv_scf|^2 =  3.088E-07

      iter #   2 total cpu time :  3037.5 secs   av.it.:  11.0
      thresh= 5.557E-05 alpha_mix =  0.700 |ddv_scf|^2 =  8.212E-08

      iter #   3 total cpu time :  3043.5 secs   av.it.:  10.5
      thresh= 2.866E-05 alpha_mix =  0.700 |ddv_scf|^2 =  3.904E-11

      iter #   4 total cpu time :  3050.4 secs   av.it.:  11.0
      thresh= 6.248E-07 alpha_mix =  0.700 |ddv_scf|^2 =  3.663E-12

      iter #   5 total cpu time :  3056.8 secs   av.it.:  10.5
      thresh= 1.914E-07 alpha_mix =  0.700 |ddv_scf|^2 =  3.680E-14

      iter #   6 total cpu time :  3062.5 secs   av.it.:  11.0
      thresh= 1.918E-08 alpha_mix =  0.700 |ddv_scf|^2 =  1.231E-15

     End of self-consistent calculation

     Convergence has been achieved 


     Representation # 25 mode #  25

     Self-consistent Calculation

      iter #   1 total cpu time :  3066.4 secs   av.it.:   3.0
      thresh= 1.000E-02 alpha_mix =  0.700 |ddv_scf|^2 =  9.501E-09

      iter #   2 total cpu time :  3072.3 secs   av.it.:  11.0
      thresh= 9.747E-06 alpha_mix =  0.700 |ddv_scf|^2 =  1.483E-09

      iter #   3 total cpu time :  3077.9 secs   av.it.:  11.0
      thresh= 3.850E-06 alpha_mix =  0.700 |ddv_scf|^2 =  2.232E-11

      iter #   4 total cpu time :  3083.4 secs   av.it.:  11.0
      thresh= 4.724E-07 alpha_mix =  0.700 |ddv_scf|^2 =  5.736E-13

      iter #   5 total cpu time :  3089.0 secs   av.it.:  10.5
      thresh= 7.574E-08 alpha_mix =  0.700 |ddv_scf|^2 =  1.697E-14

      iter #   6 total cpu time :  3094.9 secs   av.it.:  10.5
      thresh= 1.303E-08 alpha_mix =  0.700 |ddv_scf|^2 =  1.611E-16

     End of self-consistent calculation

     Convergence has been achieved 


     Representation # 26 mode #  26

     Self-consistent Calculation

      iter #   1 total cpu time :  3100.2 secs   av.it.:   5.5
      thresh= 1.000E-02 alpha_mix =  0.700 |ddv_scf|^2 =  3.051E-07

      iter #   2 total cpu time :  3106.6 secs   av.it.:  11.0
      thresh= 5.523E-05 alpha_mix =  0.700 |ddv_scf|^2 =  7.172E-08

      iter #   3 total cpu time :  3112.7 secs   av.it.:  10.5
      thresh= 2.678E-05 alpha_mix =  0.700 |ddv_scf|^2 =  1.140E-10

      iter #   4 total cpu time :  3119.1 secs   av.it.:  11.0
      thresh= 1.068E-06 alpha_mix =  0.700 |ddv_scf|^2 =  6.516E-12

      iter #   5 total cpu time :  3125.1 secs   av.it.:  10.5
      thresh= 2.553E-07 alpha_mix =  0.700 |ddv_scf|^2 =  4.108E-14

      iter #   6 total cpu time :  3131.2 secs   av.it.:  10.5
      thresh= 2.027E-08 alpha_mix =  0.700 |ddv_scf|^2 =  1.941E-15

     End of self-consistent calculation

     Convergence has been achieved 


     Representation # 27 mode #  27

     Self-consistent Calculation

      iter #   1 total cpu time :  3136.4 secs   av.it.:   5.5
      thresh= 1.000E-02 alpha_mix =  0.700 |ddv_scf|^2 =  1.699E-07

      iter #   2 total cpu time :  3143.0 secs   av.it.:  11.0
      thresh= 4.122E-05 alpha_mix =  0.700 |ddv_scf|^2 =  3.448E-08

      iter #   3 total cpu time :  3149.5 secs   av.it.:  10.5
      thresh= 1.857E-05 alpha_mix =  0.700 |ddv_scf|^2 =  1.627E-10

      iter #   4 total cpu time :  3156.6 secs   av.it.:  11.0
      thresh= 1.276E-06 alpha_mix =  0.700 |ddv_scf|^2 =  5.474E-12

      iter #   5 total cpu time :  3163.0 secs   av.it.:  10.5
      thresh= 2.340E-07 alpha_mix =  0.700 |ddv_scf|^2 =  4.257E-14

      iter #   6 total cpu time :  3169.4 secs   av.it.:  11.0
      thresh= 2.063E-08 alpha_mix =  0.700 |ddv_scf|^2 =  9.612E-16

     End of self-consistent calculation

     Convergence has been achieved 


     Representation # 28 mode #  28

     Self-consistent Calculation

      iter #   1 total cpu time :  3173.9 secs   av.it.:   3.0
      thresh= 1.000E-02 alpha_mix =  0.700 |ddv_scf|^2 =  8.723E-10

      iter #   2 total cpu time :  3180.6 secs   av.it.:  11.0
      thresh= 2.953E-06 alpha_mix =  0.700 |ddv_scf|^2 =  1.864E-11

      iter #   3 total cpu time :  3187.3 secs   av.it.:  11.0
      thresh= 4.317E-07 alpha_mix =  0.700 |ddv_scf|^2 =  1.017E-12

      iter #   4 total cpu time :  3194.2 secs   av.it.:  11.0
      thresh= 1.009E-07 alpha_mix =  0.700 |ddv_scf|^2 =  1.436E-14

      iter #   5 total cpu time :  3201.2 secs   av.it.:  10.5
      thresh= 1.198E-08 alpha_mix =  0.700 |ddv_scf|^2 =  2.901E-16

     End of self-consistent calculation

     Convergence has been achieved 


     Representation # 29 mode #  29

     Self-consistent Calculation

      iter #   1 total cpu time :  3207.2 secs   av.it.:   5.0
      thresh= 1.000E-02 alpha_mix =  0.700 |ddv_scf|^2 =  1.398E-08

      iter #   2 total cpu time :  3215.2 secs   av.it.:  11.0
      thresh= 1.182E-05 alpha_mix =  0.700 |ddv_scf|^2 =  1.546E-10

      iter #   3 total cpu time :  3222.5 secs   av.it.:  11.0
      thresh= 1.243E-06 alpha_mix =  0.700 |ddv_scf|^2 =  1.198E-11

      iter #   4 total cpu time :  3229.2 secs   av.it.:  10.0
      thresh= 3.461E-07 alpha_mix =  0.700 |ddv_scf|^2 =  1.362E-13

      iter #   5 total cpu time :  3236.4 secs   av.it.:  10.5
      thresh= 3.690E-08 alpha_mix =  0.700 |ddv_scf|^2 =  5.080E-16

     End of self-consistent calculation

     Convergence has been achieved 


     Representation # 30 mode #  30

     Self-consistent Calculation

      iter #   1 total cpu time :  3244.0 secs   av.it.:   5.0
      thresh= 1.000E-02 alpha_mix =  0.700 |ddv_scf|^2 =  1.549E-08

      iter #   2 total cpu time :  3251.9 secs   av.it.:  11.5
      thresh= 1.244E-05 alpha_mix =  0.700 |ddv_scf|^2 =  2.188E-10

      iter #   3 total cpu time :  3259.8 secs   av.it.:  11.0
      thresh= 1.479E-06 alpha_mix =  0.700 |ddv_scf|^2 =  1.494E-11

      iter #   4 total cpu time :  3267.6 secs   av.it.:  10.0
      thresh= 3.865E-07 alpha_mix =  0.700 |ddv_scf|^2 =  9.726E-14

      iter #   5 total cpu time :  3274.4 secs   av.it.:  10.0
      thresh= 3.119E-08 alpha_mix =  0.700 |ddv_scf|^2 =  6.694E-16

     End of self-consistent calculation

     Convergence has been achieved 


     Representation # 31 mode #  31

     Self-consistent Calculation

      iter #   1 total cpu time :  3280.1 secs   av.it.:   5.0
      thresh= 1.000E-02 alpha_mix =  0.700 |ddv_scf|^2 =  1.731E-08

      iter #   2 total cpu time :  3287.2 secs   av.it.:  11.5
      thresh= 1.316E-05 alpha_mix =  0.700 |ddv_scf|^2 =  2.257E-10

      iter #   3 total cpu time :  3293.6 secs   av.it.:  11.0
      thresh= 1.502E-06 alpha_mix =  0.700 |ddv_scf|^2 =  1.294E-11

      iter #   4 total cpu time :  3299.7 secs   av.it.:  10.0
      thresh= 3.597E-07 alpha_mix =  0.700 |ddv_scf|^2 =  1.049E-13

      iter #   5 total cpu time :  3305.9 secs   av.it.:  10.0
      thresh= 3.238E-08 alpha_mix =  0.700 |ddv_scf|^2 =  4.513E-16

     End of self-consistent calculation

     Convergence has been achieved 


     Representation # 32 mode #  32

     Self-consistent Calculation

      iter #   1 total cpu time :  3311.5 secs   av.it.:   5.5
      thresh= 1.000E-02 alpha_mix =  0.700 |ddv_scf|^2 =  4.054E-07

      iter #   2 total cpu time :  3318.2 secs   av.it.:  11.0
      thresh= 6.367E-05 alpha_mix =  0.700 |ddv_scf|^2 =  1.404E-07

      iter #   3 total cpu time :  3324.7 secs   av.it.:  10.0
      thresh= 3.747E-05 alpha_mix =  0.700 |ddv_scf|^2 =  1.029E-09

      iter #   4 total cpu time :  3331.4 secs   av.it.:  10.5
      thresh= 3.208E-06 alpha_mix =  0.700 |ddv_scf|^2 =  1.613E-11

      iter #   5 total cpu time :  3338.5 secs   av.it.:  10.5
      thresh= 4.016E-07 alpha_mix =  0.700 |ddv_scf|^2 =  4.712E-13

      iter #   6 total cpu time :  3346.5 secs   av.it.:  10.5
      thresh= 6.864E-08 alpha_mix =  0.700 |ddv_scf|^2 =  1.309E-14

      iter #   7 total cpu time :  3353.2 secs   av.it.:  10.0
      thresh= 1.144E-08 alpha_mix =  0.700 |ddv_scf|^2 =  3.631E-16

     End of self-consistent calculation

     Convergence has been achieved 


     Representation # 33 mode #  33

     Self-consistent Calculation

      iter #   1 total cpu time :  3359.5 secs   av.it.:   5.5
      thresh= 1.000E-02 alpha_mix =  0.700 |ddv_scf|^2 =  6.403E-07

      iter #   2 total cpu time :  3366.0 secs   av.it.:  11.0
      thresh= 8.002E-05 alpha_mix =  0.700 |ddv_scf|^2 =  3.156E-07

      iter #   3 total cpu time :  3372.0 secs   av.it.:  10.0
      thresh= 5.618E-05 alpha_mix =  0.700 |ddv_scf|^2 =  2.321E-10

      iter #   4 total cpu time :  3379.0 secs   av.it.:  11.0
      thresh= 1.524E-06 alpha_mix =  0.700 |ddv_scf|^2 =  1.320E-11

      iter #   5 total cpu time :  3385.8 secs   av.it.:  10.5
      thresh= 3.634E-07 alpha_mix =  0.700 |ddv_scf|^2 =  4.390E-13

      iter #   6 total cpu time :  3391.8 secs   av.it.:  10.0
      thresh= 6.626E-08 alpha_mix =  0.700 |ddv_scf|^2 =  9.094E-15

     End of self-consistent calculation

     Convergence has been achieved 


     Representation # 34 mode #  34

     Self-consistent Calculation

      iter #   1 total cpu time :  3397.1 secs   av.it.:   5.5
      thresh= 1.000E-02 alpha_mix =  0.700 |ddv_scf|^2 =  4.845E-07

      iter #   2 total cpu time :  3403.5 secs   av.it.:  11.0
      thresh= 6.960E-05 alpha_mix =  0.700 |ddv_scf|^2 =  2.332E-07

      iter #   3 total cpu time :  3409.9 secs   av.it.:  10.0
      thresh= 4.829E-05 alpha_mix =  0.700 |ddv_scf|^2 =  2.071E-10

      iter #   4 total cpu time :  3416.3 secs   av.it.:  11.0
      thresh= 1.439E-06 alpha_mix =  0.700 |ddv_scf|^2 =  1.497E-11

      iter #   5 total cpu time :  3422.8 secs   av.it.:  10.5
      thresh= 3.869E-07 alpha_mix =  0.700 |ddv_scf|^2 =  6.828E-13

      iter #   6 total cpu time :  3428.9 secs   av.it.:  10.5
      thresh= 8.263E-08 alpha_mix =  0.700 |ddv_scf|^2 =  9.137E-15

     End of self-consistent calculation

     Convergence has been achieved 


     Representation # 35 mode #  35

     Self-consistent Calculation

      iter #   1 total cpu time :  3433.6 secs   av.it.:   3.5
      thresh= 1.000E-02 alpha_mix =  0.700 |ddv_scf|^2 =  1.469E-08

      iter #   2 total cpu time :  3440.2 secs   av.it.:  11.0
      thresh= 1.212E-05 alpha_mix =  0.700 |ddv_scf|^2 =  2.956E-09

      iter #   3 total cpu time :  3446.6 secs   av.it.:  10.0
      thresh= 5.437E-06 alpha_mix =  0.700 |ddv_scf|^2 =  1.023E-10

      iter #   4 total cpu time :  3453.4 secs   av.it.:  10.0
      thresh= 1.011E-06 alpha_mix =  0.700 |ddv_scf|^2 =  2.614E-12

      iter #   5 total cpu time :  3460.5 secs   av.it.:  11.0
      thresh= 1.617E-07 alpha_mix =  0.700 |ddv_scf|^2 =  6.478E-14

      iter #   6 total cpu time :  3467.3 secs   av.it.:  10.5
      thresh= 2.545E-08 alpha_mix =  0.700 |ddv_scf|^2 =  2.080E-15

     End of self-consistent calculation

     Convergence has been achieved 


     Representation # 36 mode #  36

     Self-consistent Calculation

      iter #   1 total cpu time :  3473.1 secs   av.it.:   5.5
      thresh= 1.000E-02 alpha_mix =  0.700 |ddv_scf|^2 =  4.095E-07

      iter #   2 total cpu time :  3480.6 secs   av.it.:  11.0
      thresh= 6.400E-05 alpha_mix =  0.700 |ddv_scf|^2 =  1.817E-07

      iter #   3 total cpu time :  3488.0 secs   av.it.:  10.0
      thresh= 4.262E-05 alpha_mix =  0.700 |ddv_scf|^2 =  4.596E-10

      iter #   4 total cpu time :  3496.0 secs   av.it.:  11.0
      thresh= 2.144E-06 alpha_mix =  0.700 |ddv_scf|^2 =  1.454E-11

      iter #   5 total cpu time :  3503.7 secs   av.it.:  10.5
      thresh= 3.813E-07 alpha_mix =  0.700 |ddv_scf|^2 =  6.265E-13

      iter #   6 total cpu time :  3511.8 secs   av.it.:  10.5
      thresh= 7.915E-08 alpha_mix =  0.700 |ddv_scf|^2 =  7.756E-15

     End of self-consistent calculation

     Convergence has been achieved 


     Representation # 37 mode #  37

     Self-consistent Calculation

      iter #   1 total cpu time :  3517.4 secs   av.it.:   3.5
[...]
      thresh= 1.000E-02 alpha_mix =  0.700 |ddv_scf|^2 =  8.976E-09

      iter #   2 total cpu time :  4451.4 secs   av.it.:  11.5
      thresh= 9.474E-06 alpha_mix =  0.700 |ddv_scf|^2 =  1.223E-08

      iter #   3 total cpu time :  4459.0 secs   av.it.:  10.5
      thresh= 1.106E-05 alpha_mix =  0.700 |ddv_scf|^2 =  2.228E-11

      iter #   4 total cpu time :  4467.2 secs   av.it.:  11.0
      thresh= 4.720E-07 alpha_mix =  0.700 |ddv_scf|^2 =  9.466E-12

      iter #   5 total cpu time :  4475.2 secs   av.it.:  11.0
      thresh= 3.077E-07 alpha_mix =  0.700 |ddv_scf|^2 =  3.419E-13

      iter #   6 total cpu time :  4483.1 secs   av.it.:  11.0
      thresh= 5.847E-08 alpha_mix =  0.700 |ddv_scf|^2 =  1.026E-13

      iter #   7 total cpu time :  4490.9 secs   av.it.:  11.0
      thresh= 3.203E-08 alpha_mix =  0.700 |ddv_scf|^2 =  9.036E-16

     End of self-consistent calculation

     Convergence has been achieved 


     Representation # 52 mode #  52

     Self-consistent Calculation

      iter #   1 total cpu time :  4496.8 secs   av.it.:   3.0
      thresh= 1.000E-02 alpha_mix =  0.700 |ddv_scf|^2 =  2.584E-09

      iter #   2 total cpu time :  4504.2 secs   av.it.:  11.5
      thresh= 5.083E-06 alpha_mix =  0.700 |ddv_scf|^2 =  2.637E-09

      iter #   3 total cpu time :  4511.6 secs   av.it.:  11.0
      thresh= 5.135E-06 alpha_mix =  0.700 |ddv_scf|^2 =  3.162E-11

      iter #   4 total cpu time :  4520.6 secs   av.it.:  11.0
      thresh= 5.623E-07 alpha_mix =  0.700 |ddv_scf|^2 =  3.646E-12

      iter #   5 total cpu time :  4530.4 secs   av.it.:  11.0
      thresh= 1.909E-07 alpha_mix =  0.700 |ddv_scf|^2 =  2.204E-13

      iter #   6 total cpu time :  4539.8 secs   av.it.:  11.0
      thresh= 4.695E-08 alpha_mix =  0.700 |ddv_scf|^2 =  4.353E-14

      iter #   7 total cpu time :  4548.8 secs   av.it.:  11.0
      thresh= 2.086E-08 alpha_mix =  0.700 |ddv_scf|^2 =  1.453E-15

     End of self-consistent calculation

     Convergence has been achieved 


     Representation # 53 mode #  53

     Self-consistent Calculation

      iter #   1 total cpu time :  4555.5 secs   av.it.:   5.0
      thresh= 1.000E-02 alpha_mix =  0.700 |ddv_scf|^2 =  1.106E-07

      iter #   2 total cpu time :  4563.4 secs   av.it.:  11.0
      thresh= 3.325E-05 alpha_mix =  0.700 |ddv_scf|^2 =  1.522E-07

      iter #   3 total cpu time :  4571.2 secs   av.it.:  10.0
      thresh= 3.901E-05 alpha_mix =  0.700 |ddv_scf|^2 =  3.128E-10

      iter #   4 total cpu time :  4579.2 secs   av.it.:  11.0
      thresh= 1.769E-06 alpha_mix =  0.700 |ddv_scf|^2 =  4.843E-11

      iter #   5 total cpu time :  4586.8 secs   av.it.:  11.0
      thresh= 6.959E-07 alpha_mix =  0.700 |ddv_scf|^2 =  2.013E-12

      iter #   6 total cpu time :  4594.7 secs   av.it.:  11.0
      thresh= 1.419E-07 alpha_mix =  0.700 |ddv_scf|^2 =  8.757E-13

      iter #   7 total cpu time :  4603.2 secs   av.it.:  11.0
      thresh= 9.358E-08 alpha_mix =  0.700 |ddv_scf|^2 =  8.088E-15

     End of self-consistent calculation

     Convergence has been achieved 


     Representation # 54 mode #  54

     Self-consistent Calculation

      iter #   1 total cpu time :  4609.2 secs   av.it.:   5.0
      thresh= 1.000E-02 alpha_mix =  0.700 |ddv_scf|^2 =  1.036E-07

      iter #   2 total cpu time :  4617.3 secs   av.it.:  11.0
      thresh= 3.218E-05 alpha_mix =  0.700 |ddv_scf|^2 =  1.388E-07

      iter #   3 total cpu time :  4625.4 secs   av.it.:  10.0
      thresh= 3.725E-05 alpha_mix =  0.700 |ddv_scf|^2 =  3.885E-10

      iter #   4 total cpu time :  4632.6 secs   av.it.:  11.0
      thresh= 1.971E-06 alpha_mix =  0.700 |ddv_scf|^2 =  8.191E-11

      iter #   5 total cpu time :  4639.3 secs   av.it.:  11.0
      thresh= 9.050E-07 alpha_mix =  0.700 |ddv_scf|^2 =  2.508E-12

      iter #   6 total cpu time :  4646.9 secs   av.it.:  11.0
      thresh= 1.584E-07 alpha_mix =  0.700 |ddv_scf|^2 =  7.193E-13

      iter #   7 total cpu time :  4653.8 secs   av.it.:  11.0
      thresh= 8.481E-08 alpha_mix =  0.700 |ddv_scf|^2 =  1.523E-14

      iter #   8 total cpu time :  4660.9 secs   av.it.:  11.0
      thresh= 1.234E-08 alpha_mix =  0.700 |ddv_scf|^2 =  8.948E-15

     End of self-consistent calculation

     Convergence has been achieved 

     Number of q in the star =    1
     List of q in the star:
          1   0.000000000   0.000000000   0.000000000

          Dielectric constant in cartesian axis 

          (      10.615755010       0.000000000       0.000000000 )
          (       0.000000000       2.269318432       0.000000000 )
          (       0.000000000       0.000000000       1.299302197 )

          Effective charges (d Force / dE) in cartesian axis

           atom      1   H  
      Ex  (        0.12384       -0.12041       -0.00000 )
      Ey  (       -0.15922       -0.04163        0.00000 )
      Ez  (       -0.00000        0.00000        0.12322 )
           atom      2   H  
      Ex  (        0.12384        0.12041        0.00000 )
      Ey  (        0.15922       -0.04163       -0.00000 )
      Ez  (       -0.00000        0.00000        0.12322 )
           atom      3   C  
      Ex  (       -0.92554        0.00195        0.00000 )
      Ey  (        0.07278        0.22840       -0.00000 )
      Ez  (        0.00000       -0.00000       -0.12616 )
           atom      4   C  
      Ex  (       -0.92554       -0.00195        0.00000 )
      Ey  (       -0.07278        0.22840       -0.00000 )
      Ez  (        0.00000        0.00000       -0.12616 )
           atom      5   C  
      Ex  (       -0.33975       -0.60456        0.00000 )
      Ey  (       -0.23905       -0.15323        0.00000 )
      Ez  (        0.00000        0.00000        0.02438 )
           atom      6   C  
      Ex  (       -0.33975        0.60456        0.00000 )
      Ey  (        0.23905       -0.15323        0.00000 )
      Ez  (       -0.00000       -0.00000        0.02438 )
           atom      7   C  
      Ex  (       -0.15028       -0.79850       -0.00000 )
      Ey  (       -0.12899       -0.05227       -0.00000 )
      Ez  (        0.00000        0.00000        0.02265 )
           atom      8   C  
      Ex  (       -0.15028        0.79850        0.00000 )
      Ey  (        0.12899       -0.05227        0.00000 )
      Ez  (        0.00000        0.00000        0.02265 )
           atom      9   C  
      Ex  (       -1.25568        0.00000        0.00000 )
      Ey  (        0.00000        0.15879        0.00000 )
      Ez  (        0.00000        0.00000        0.00641 )
           atom     10   C  
      Ex  (       -1.25568        0.00000       -0.00000 )
      Ey  (        0.00000        0.15879        0.00000 )
      Ez  (        0.00000        0.00000        0.00641 )
           atom     11   C  
      Ex  (       -0.15028        0.79850        0.00000 )
      Ey  (        0.12899       -0.05227        0.00000 )
      Ez  (        0.00000       -0.00000        0.02265 )
           atom     12   C  
      Ex  (       -0.15028       -0.79850        0.00000 )
      Ey  (       -0.12899       -0.05227        0.00000 )
      Ez  (        0.00000        0.00000        0.02265 )
           atom     13   C  
      Ex  (       -0.33975        0.60456        0.00000 )
      Ey  (        0.23905       -0.15323        0.00000 )
      Ez  (        0.00000        0.00000        0.02438 )
           atom     14   C  
      Ex  (       -0.33975       -0.60456        0.00000 )
      Ey  (       -0.23905       -0.15323        0.00000 )
      Ez  (        0.00000        0.00000        0.02438 )
           atom     15   C  
      Ex  (       -0.92554       -0.00195       -0.00000 )
      Ey  (       -0.07278        0.22840        0.00000 )
      Ez  (        0.00000        0.00000       -0.12616 )
           atom     16   C  
      Ex  (       -0.92554        0.00195        0.00000 )
      Ey  (        0.07278        0.22840       -0.00000 )
      Ez  (        0.00000        0.00000       -0.12616 )
           atom     17   H  
      Ex  (        0.12384        0.12041       -0.00000 )
      Ey  (        0.15922       -0.04163        0.00000 )
      Ez  (        0.00000       -0.00000        0.12322 )
           atom     18   H  
      Ex  (        0.12384       -0.12041        0.00000 )
      Ey  (       -0.15922       -0.04163        0.00000 )
      Ez  (        0.00000        0.00000        0.12322 )

     Diagonalizing the dynamical matrix

     q = (    0.000000000   0.000000000   0.000000000 ) 

 **************************************************************************
     freq (    1) =      -1.644157 [THz] =     -54.843166 [cm-1]
     freq (    2) =      -1.199731 [THz] =     -40.018735 [cm-1]
     freq (    3) =       1.464354 [THz] =      48.845580 [cm-1]
     freq (    4) =       2.014969 [THz] =      67.212126 [cm-1]
     freq (    5) =       2.790878 [THz] =      93.093658 [cm-1]
     freq (    6) =       7.340713 [THz] =     244.859836 [cm-1]
     freq (    7) =       7.694421 [THz] =     256.658270 [cm-1]
     freq (    8) =      11.023305 [THz] =     367.697861 [cm-1]
     freq (    9) =      11.146457 [THz] =     371.805770 [cm-1]
     freq (   10) =      11.699859 [THz] =     390.265295 [cm-1]
     freq (   11) =      11.992693 [THz] =     400.033167 [cm-1]
     freq (   12) =      14.130516 [THz] =     471.343266 [cm-1]
     freq (   13) =      15.275560 [THz] =     509.537831 [cm-1]
     freq (   14) =      15.377938 [THz] =     512.952794 [cm-1]
     freq (   15) =      16.593637 [THz] =     553.504148 [cm-1]
     freq (   16) =      17.166148 [THz] =     572.601069 [cm-1]
     freq (   17) =      17.622839 [THz] =     587.834640 [cm-1]
     freq (   18) =      20.116663 [THz] =     671.019633 [cm-1]
     freq (   19) =      21.215332 [THz] =     707.667295 [cm-1]
     freq (   20) =      21.777530 [THz] =     726.420220 [cm-1]
     freq (   21) =      22.178245 [THz] =     739.786620 [cm-1]
     freq (   22) =      22.540887 [THz] =     751.883052 [cm-1]
     freq (   23) =      22.806021 [THz] =     760.726989 [cm-1]
     freq (   24) =      24.374513 [THz] =     813.046251 [cm-1]
     freq (   25) =      25.807284 [THz] =     860.838350 [cm-1]
     freq (   26) =      27.101733 [THz] =     904.016512 [cm-1]
     freq (   27) =      27.125586 [THz] =     904.812144 [cm-1]
     freq (   28) =      27.823211 [THz] =     928.082417 [cm-1]
     freq (   29) =      28.075555 [THz] =     936.499725 [cm-1]
     freq (   30) =      28.471889 [THz] =     949.719980 [cm-1]
     freq (   31) =      32.326314 [THz] =    1078.289777 [cm-1]
     freq (   32) =      32.541718 [THz] =    1085.474857 [cm-1]
     freq (   33) =      33.238421 [THz] =    1108.714397 [cm-1]
     freq (   34) =      34.858872 [THz] =    1162.766804 [cm-1]
     freq (   35) =      35.255251 [THz] =    1175.988591 [cm-1]
     freq (   36) =      37.168747 [THz] =    1239.815955 [cm-1]
     freq (   37) =      37.460578 [THz] =    1249.550365 [cm-1]
     freq (   38) =      37.655140 [THz] =    1256.040286 [cm-1]
     freq (   39) =      38.012945 [THz] =    1267.975368 [cm-1]
     freq (   40) =      39.965054 [THz] =    1333.090713 [cm-1]
     freq (   41) =      40.097871 [THz] =    1337.520999 [cm-1]
     freq (   42) =      40.460020 [THz] =    1349.601001 [cm-1]
     freq (   43) =      41.927169 [THz] =    1398.539834 [cm-1]
     freq (   44) =      42.327637 [THz] =    1411.898000 [cm-1]
     freq (   45) =      43.186366 [THz] =    1440.542098 [cm-1]
     freq (   46) =      43.463635 [THz] =    1449.790824 [cm-1]
     freq (   47) =      45.861352 [THz] =    1529.770055 [cm-1]
     freq (   48) =      46.224118 [THz] =    1541.870604 [cm-1]
     freq (   49) =      46.587364 [THz] =    1553.987204 [cm-1]
     freq (   50) =      48.994827 [THz] =    1634.291523 [cm-1]
     freq (   51) =      95.869273 [THz] =    3197.854723 [cm-1]
     freq (   52) =      95.874620 [THz] =    3198.033080 [cm-1]
     freq (   53) =      97.028516 [THz] =    3236.522900 [cm-1]
     freq (   54) =      97.040207 [THz] =    3236.912898 [cm-1]
 **************************************************************************

     Mode symmetry, D_2h (mmm)  point group:

     freq (  1 -  1) =        -54.8  [cm-1]   --> B_1u            I  
     freq (  2 -  2) =        -40.0  [cm-1]   --> B_3g            R  
     freq (  3 -  3) =         48.8  [cm-1]   --> B_2u            I  
     freq (  4 -  4) =         67.2  [cm-1]   --> B_3u            I  
     freq (  5 -  5) =         93.1  [cm-1]   --> B_1u            I  
     freq (  6 -  6) =        244.9  [cm-1]   --> B_3g            R  
     freq (  7 -  7) =        256.7  [cm-1]   --> B_1g            R  
     freq (  8 -  8) =        367.7  [cm-1]   --> B_2g            R  
     freq (  9 -  9) =        371.8  [cm-1]   --> A_u                
     freq ( 10 - 10) =        390.3  [cm-1]   --> B_1u            I  
     freq ( 11 - 11) =        400.0  [cm-1]   --> A_g             R  
     freq ( 12 - 12) =        471.3  [cm-1]   --> B_2g            R  
     freq ( 13 - 13) =        509.5  [cm-1]   --> B_3g            R  
     freq ( 14 - 14) =        513.0  [cm-1]   --> B_3u            I  
     freq ( 15 - 15) =        553.5  [cm-1]   --> B_1g            R  
     freq ( 16 - 16) =        572.6  [cm-1]   --> A_u                
     freq ( 17 - 17) =        587.8  [cm-1]   --> B_1u            I  
     freq ( 18 - 18) =        671.0  [cm-1]   --> B_3u            I  
     freq ( 19 - 19) =        707.7  [cm-1]   --> B_2g            R  
     freq ( 20 - 20) =        726.4  [cm-1]   --> B_2u            I  
     freq ( 21 - 21) =        739.8  [cm-1]   --> B_1g            R  
     freq ( 22 - 22) =        751.9  [cm-1]   --> B_3g            R  
     freq ( 23 - 23) =        760.7  [cm-1]   --> B_1u            I  
     freq ( 24 - 24) =        813.0  [cm-1]   --> A_u                
     freq ( 25 - 25) =        860.8  [cm-1]   --> B_2g            R  
     freq ( 26 - 26) =        904.0  [cm-1]   --> A_u                
     freq ( 27 - 27) =        904.8  [cm-1]   --> B_2g            R  
     freq ( 28 - 28) =        928.1  [cm-1]   --> B_3u            I  
     freq ( 29 - 29) =        936.5  [cm-1]   --> A_g             R  
     freq ( 30 - 30) =        949.7  [cm-1]   --> B_1g            R  
     freq ( 31 - 31) =       1078.3  [cm-1]   --> B_2u            I  
     freq ( 32 - 32) =       1085.5  [cm-1]   --> B_2u            I  
     freq ( 33 - 33) =       1108.7  [cm-1]   --> B_1g            R  
     freq ( 34 - 34) =       1162.8  [cm-1]   --> B_3u            I  
     freq ( 35 - 35) =       1176.0  [cm-1]   --> A_g             R  
     freq ( 36 - 36) =       1239.8  [cm-1]   --> A_g             R  
     freq ( 37 - 37) =       1249.6  [cm-1]   --> B_2u            I  
     freq ( 38 - 38) =       1256.0  [cm-1]   --> B_3u            I  
     freq ( 39 - 39) =       1268.0  [cm-1]   --> A_g             R  
     freq ( 40 - 40) =       1333.1  [cm-1]   --> B_2u            I  
     freq ( 41 - 41) =       1337.5  [cm-1]   --> A_g             R  
     freq ( 42 - 42) =       1349.6  [cm-1]   --> B_1g            R  
     freq ( 43 - 43) =       1398.5  [cm-1]   --> B_2u            I  
     freq ( 44 - 44) =       1411.9  [cm-1]   --> B_3u            I  
     freq ( 45 - 45) =       1440.5  [cm-1]   --> A_g             R  
     freq ( 46 - 46) =       1449.8  [cm-1]   --> B_1g            R  
     freq ( 47 - 47) =       1529.8  [cm-1]   --> B_1g            R  
     freq ( 48 - 48) =       1541.9  [cm-1]   --> B_2u            I  
     freq ( 49 - 49) =       1554.0  [cm-1]   --> B_3u            I  
     freq ( 50 - 50) =       1634.3  [cm-1]   --> A_g             R  
     freq ( 51 - 51) =       3197.9  [cm-1]   --> B_1g            R  
     freq ( 52 - 52) =       3198.0  [cm-1]   --> B_3u            I  
     freq ( 53 - 53) =       3236.5  [cm-1]   --> B_2u            I  
     freq ( 54 - 54) =       3236.9  [cm-1]   --> A_g             R  

     PHONON       :     1h16m CPU        1h17m WALL

     INITIALIZATION: 
     phq_setup    :      0.49s CPU      0.49s WALL (       1 calls)
     phq_init     :     21.06s CPU     21.10s WALL (       1 calls)

     phq_init     :     21.06s CPU     21.10s WALL (       1 calls)
     init_vloc    :      2.43s CPU      2.43s WALL (       1 calls)
     init_us_1    :      0.03s CPU      0.03s WALL (       1 calls)

     DIELECTRIC CONSTANT AND EFFECTIVE CHARGES:
     solve_e      :    311.20s CPU    315.70s WALL (       1 calls)
     dielec       :      0.06s CPU      0.14s WALL (       1 calls)
     zstar_eu     :     32.63s CPU     33.45s WALL (       1 calls)

     RAMAN COEFFICIENTS, THIRD-ORDER CHI:
     dhdrhopsi    :    633.57s CPU    637.55s WALL (       1 calls)
     dvpsi_e2     :     30.55s CPU     30.81s WALL (       1 calls)
     solve_e2     :    602.15s CPU    610.49s WALL (       1 calls)

     DYNAMICAL MATRIX:
     dynmat0      :     11.95s CPU     11.97s WALL (       1 calls)
     phqscf       :   2888.84s CPU   2919.19s WALL (       1 calls)
     dynmatrix    :      0.07s CPU      0.07s WALL (       1 calls)

     phqscf       :   2888.84s CPU   2919.19s WALL (       1 calls)
     solve_linter :   2801.02s CPU   2830.77s WALL (      54 calls)
     drhodv       :     77.14s CPU     77.46s WALL (      54 calls)

     dynmat0      :     11.95s CPU     11.97s WALL (       1 calls)
     dynmat_us    :      3.00s CPU      3.01s WALL (       1 calls)
     d2ionq       :      8.94s CPU      8.95s WALL (       1 calls)

     dynmat_us    :      3.00s CPU      3.01s WALL (       1 calls)

     phqscf       :   2888.84s CPU   2919.19s WALL (       1 calls)
     solve_linter :   2801.02s CPU   2830.77s WALL (      54 calls)

     solve_linter :   2801.02s CPU   2830.77s WALL (      54 calls)
     dvqpsi_us    :    147.41s CPU    148.10s WALL (     324 calls)
     ortho        :      9.48s CPU      9.52s WALL (     462 calls)
     cgsolve      :   3236.24s CPU   3254.97s WALL (     564 calls)
     incdrhoscf   :    335.47s CPU    337.07s WALL (     525 calls)
     vpsifft      :    188.75s CPU    189.60s WALL (     348 calls)
     dv_of_drho   :    147.11s CPU    147.81s WALL (     534 calls)
     mix_pot      :     22.79s CPU     35.03s WALL (     429 calls)
     psymdvscf    :    120.74s CPU    120.93s WALL (     402 calls)

     dvqpsi_us    :    147.41s CPU    148.10s WALL (     324 calls)
     dvqpsi_us_on :      2.72s CPU      2.73s WALL (     324 calls)

     cgsolve      :   3236.24s CPU   3254.97s WALL (     564 calls)
     ch_psi       :   3045.32s CPU   3063.01s WALL (    9398 calls)

     ch_psi       :   3045.32s CPU   3063.01s WALL (    9398 calls)
     h_psiq       :   2695.03s CPU   2711.22s WALL (    9398 calls)
     last         :    318.50s CPU    319.67s WALL (    9398 calls)

     h_psiq       :   2695.03s CPU   2711.22s WALL (    9398 calls)
     firstfft     :   1278.85s CPU   1286.36s WALL (  196410 calls)
     secondfft    :   1056.67s CPU   1063.73s WALL (  196410 calls)
     add_vuspsi   :     37.71s CPU     37.88s WALL (   12432 calls)

     incdrhoscf   :    335.47s CPU    337.07s WALL (     525 calls)


      General routines
     calbec       :     87.60s CPU     88.01s WALL (   25761 calls)
     fft          :     96.44s CPU     96.95s WALL (    5888 calls)
     ffts         :     43.77s CPU     43.96s WALL (    3240 calls)
     fftw         :   2742.47s CPU   2759.13s WALL (  480780 calls)
     davcio       :      0.63s CPU     21.23s WALL (    5468 calls)
     write_rec    :     14.89s CPU     17.64s WALL (     483 calls)


     PHONON       :     1h16m CPU        1h17m WALL


   This run was terminated on:  23:34:28   5Jul2014            

=------------------------------------------------------------------------------=
   JOB DONE.
=------------------------------------------------------------------------------=
