ANIMSTEPS  42
CRYSTAL
PRIMVEC
    4.260844976    0.000000000    0.000000000
    0.000000000   12.000000071    0.000000000
    0.000000000    0.000000000    8.000000189
PRIMCOORD  1
     14   1
   H      1.20202  -3.43300   0.00000   0.00000  -0.00000  -0.02627
   H      3.05882  -3.43300   0.00000   0.00000  -0.00000  -0.02627
   C      0.67516  -2.47829   0.00000   0.00000  -0.00000  -0.02669
   C      3.58569  -2.47829   0.00000   0.00000  -0.00000  -0.02669
   C      1.42117  -1.23630   0.00000   0.00000  -0.00000  -0.02703
   C      2.83968  -1.23630   0.00000   0.00000  -0.00000  -0.02703
   C      0.72520  -0.00000  -0.00000   0.00000  -0.00000  -0.02709
   C      3.53565   0.00000  -0.00000   0.00000  -0.00000  -0.02709
   C      1.42117   1.23630  -0.00000   0.00000  -0.00000  -0.02703
   C      2.83968   1.23630  -0.00000   0.00000  -0.00000  -0.02703
   C      0.67516   2.47829   0.00000   0.00000  -0.00000  -0.02669
   C      3.58569   2.47829   0.00000   0.00000  -0.00000  -0.02669
   H      1.20202   3.43300  -0.00000   0.00000  -0.00000  -0.02627
   H      3.05882   3.43300   0.00000   0.00000  -0.00000  -0.02627
PRIMCOORD  2
     14   1
   H      1.20202  -3.43300   0.00000   0.00000   0.00000   0.03874
   H      3.05882  -3.43300   0.00000   0.00000   0.00000   0.03874
   C      0.67516  -2.47829   0.00000   0.00000   0.00000   0.02824
   C      3.58569  -2.47829   0.00000   0.00000   0.00000   0.02824
   C      1.42117  -1.23630   0.00000   0.00000   0.00000   0.01421
   C      2.83968  -1.23630   0.00000   0.00000   0.00000   0.01421
   C      0.72520  -0.00000  -0.00000   0.00000   0.00000   0.00000
   C      3.53565   0.00000  -0.00000   0.00000   0.00000   0.00000
   C      1.42117   1.23630  -0.00000   0.00000   0.00000  -0.01421
   C      2.83968   1.23630  -0.00000   0.00000   0.00000  -0.01421
   C      0.67516   2.47829   0.00000   0.00000   0.00000  -0.02824
   C      3.58569   2.47829   0.00000   0.00000   0.00000  -0.02824
   H      1.20202   3.43300  -0.00000   0.00000   0.00000  -0.03874
   H      3.05882   3.43300   0.00000   0.00000   0.00000  -0.03874
PRIMCOORD  3
     14   1
   H      1.20202  -3.43300   0.00000  -0.02697   0.00018   0.00000
   H      3.05882  -3.43300   0.00000  -0.02697  -0.00018   0.00000
   C      0.67516  -2.47829   0.00000  -0.02706   0.00014   0.00000
   C      3.58569  -2.47829   0.00000  -0.02706  -0.00014  -0.00000
   C      1.42117  -1.23630   0.00000  -0.02646   0.00008  -0.00000
   C      2.83968  -1.23630   0.00000  -0.02646  -0.00008  -0.00000
   C      0.72520  -0.00000  -0.00000  -0.02608  -0.00000  -0.00000
   C      3.53565   0.00000  -0.00000  -0.02608  -0.00000  -0.00000
   C      1.42117   1.23630  -0.00000  -0.02646  -0.00008  -0.00000
   C      2.83968   1.23630  -0.00000  -0.02646   0.00008  -0.00000
   C      0.67516   2.47829   0.00000  -0.02706  -0.00014  -0.00000
   C      3.58569   2.47829   0.00000  -0.02706   0.00014  -0.00000
   H      1.20202   3.43300  -0.00000  -0.02697  -0.00018  -0.00000
   H      3.05882   3.43300   0.00000  -0.02697   0.00018  -0.00000
PRIMCOORD  4
     14   1
   H      1.20202  -3.43300   0.00000   0.00018   0.02658  -0.00000
   H      3.05882  -3.43300   0.00000  -0.00018   0.02658  -0.00000
   C      0.67516  -2.47829   0.00000  -0.00002   0.02646  -0.00000
   C      3.58569  -2.47829   0.00000   0.00002   0.02646  -0.00000
   C      1.42117  -1.23630   0.00000  -0.00009   0.02691  -0.00000
   C      2.83968  -1.23630   0.00000   0.00009   0.02691  -0.00000
   C      0.72520  -0.00000  -0.00000  -0.00000   0.02716  -0.00000
   C      3.53565   0.00000  -0.00000  -0.00000   0.02716  -0.00000
   C      1.42117   1.23630  -0.00000   0.00009   0.02691  -0.00000
   C      2.83968   1.23630  -0.00000  -0.00009   0.02691   0.00000
   C      0.67516   2.47829   0.00000   0.00002   0.02646   0.00000
   C      3.58569   2.47829   0.00000  -0.00002   0.02646   0.00000
   H      1.20202   3.43300  -0.00000  -0.00018   0.02658   0.00000
   H      3.05882   3.43300   0.00000   0.00018   0.02658   0.00000
PRIMCOORD  5
     14   1
   H      1.20202  -3.43300   0.00000   0.00000   0.00000  -0.04275
   H      3.05882  -3.43300   0.00000   0.00000   0.00000  -0.04275
   C      0.67516  -2.47829   0.00000   0.00000   0.00000  -0.01818
   C      3.58569  -2.47829   0.00000   0.00000   0.00000  -0.01818
   C      1.42117  -1.23630   0.00000   0.00000   0.00000   0.01080
   C      2.83968  -1.23630   0.00000   0.00000   0.00000   0.01080
   C      0.72520  -0.00000  -0.00000   0.00000   0.00000   0.02122
   C      3.53565   0.00000  -0.00000   0.00000  -0.00000   0.02122
   C      1.42117   1.23630  -0.00000   0.00000   0.00000   0.01080
   C      2.83968   1.23630  -0.00000   0.00000   0.00000   0.01080
   C      0.67516   2.47829   0.00000   0.00000   0.00000  -0.01818
   C      3.58569   2.47829   0.00000   0.00000  -0.00000  -0.01818
   H      1.20202   3.43300  -0.00000  -0.00000   0.00000  -0.04275
   H      3.05882   3.43300   0.00000  -0.00000  -0.00000  -0.04275
PRIMCOORD  6
     14   1
   H      1.20202  -3.43300   0.00000   0.00000   0.00000   0.04303
   H      3.05882  -3.43300   0.00000   0.00000  -0.00000  -0.04303
   C      0.67516  -2.47829   0.00000   0.00000  -0.00000   0.02179
   C      3.58569  -2.47829   0.00000   0.00000  -0.00000  -0.02179
   C      1.42117  -1.23630   0.00000   0.00000   0.00000   0.01316
   C      2.83968  -1.23630   0.00000   0.00000  -0.00000  -0.01316
   C      0.72520  -0.00000  -0.00000   0.00000  -0.00000   0.00000
   C      3.53565   0.00000  -0.00000   0.00000  -0.00000  -0.00000
   C      1.42117   1.23630  -0.00000  -0.00000   0.00000  -0.01316
   C      2.83968   1.23630  -0.00000  -0.00000  -0.00000   0.01316
   C      0.67516   2.47829   0.00000  -0.00000  -0.00000  -0.02179
   C      3.58569   2.47829   0.00000  -0.00000  -0.00000   0.02179
   H      1.20202   3.43300  -0.00000  -0.00000   0.00000  -0.04303
   H      3.05882   3.43300   0.00000  -0.00000   0.00000   0.04303
PRIMCOORD  7
     14   1
   H      1.20202  -3.43300   0.00000  -0.03531  -0.00425   0.00000
   H      3.05882  -3.43300   0.00000  -0.03531   0.00425   0.00000
   C      0.67516  -2.47829   0.00000  -0.03026  -0.00135   0.00000
   C      3.58569  -2.47829   0.00000  -0.03026   0.00135   0.00000
   C      1.42117  -1.23630   0.00000  -0.01765  -0.00251  -0.00000
   C      2.83968  -1.23630   0.00000  -0.01765   0.00251  -0.00000
   C      0.72520  -0.00000  -0.00000  -0.00000   0.00058  -0.00000
   C      3.53565   0.00000  -0.00000  -0.00000  -0.00058   0.00000
   C      1.42117   1.23630  -0.00000   0.01765  -0.00251   0.00000
   C      2.83968   1.23630  -0.00000   0.01765   0.00251   0.00000
   C      0.67516   2.47829   0.00000   0.03026  -0.00135  -0.00000
   C      3.58569   2.47829   0.00000   0.03026   0.00135   0.00000
   H      1.20202   3.43300  -0.00000   0.03531  -0.00425  -0.00000
   H      3.05882   3.43300   0.00000   0.03531   0.00425  -0.00000
PRIMCOORD  8
     14   1
   H      1.20202  -3.43300   0.00000   0.00000   0.00000   0.04364
   H      3.05882  -3.43300   0.00000   0.00000  -0.00000   0.04364
   C      0.67516  -2.47829   0.00000   0.00000   0.00000   0.00678
   C      3.58569  -2.47829   0.00000   0.00000  -0.00000   0.00678
   C      1.42117  -1.23630   0.00000   0.00000   0.00000  -0.02345
   C      2.83968  -1.23630   0.00000   0.00000  -0.00000  -0.02345
   C      0.72520  -0.00000  -0.00000  -0.00000  -0.00000   0.00000
   C      3.53565   0.00000  -0.00000  -0.00000   0.00000  -0.00000
   C      1.42117   1.23630  -0.00000  -0.00000   0.00000   0.02345
   C      2.83968   1.23630  -0.00000  -0.00000  -0.00000   0.02345
   C      0.67516   2.47829   0.00000  -0.00000   0.00000  -0.00678
   C      3.58569   2.47829   0.00000  -0.00000  -0.00000  -0.00678
   H      1.20202   3.43300  -0.00000  -0.00000   0.00000  -0.04364
   H      3.05882   3.43300   0.00000  -0.00000  -0.00000  -0.04364
PRIMCOORD  9
     14   1
   H      1.20202  -3.43300   0.00000  -0.00000  -0.00000   0.04129
   H      3.05882  -3.43300   0.00000  -0.00000   0.00000  -0.04129
   C      0.67516  -2.47829   0.00000  -0.00000   0.00000   0.02177
   C      3.58569  -2.47829   0.00000  -0.00000   0.00000  -0.02177
   C      1.42117  -1.23630   0.00000  -0.00000  -0.00000   0.01566
   C      2.83968  -1.23630   0.00000  -0.00000   0.00000  -0.01566
   C      0.72520  -0.00000  -0.00000   0.00000   0.00000   0.01233
   C      3.53565   0.00000  -0.00000   0.00000   0.00000  -0.01233
   C      1.42117   1.23630  -0.00000   0.00000  -0.00000   0.01566
   C      2.83968   1.23630  -0.00000   0.00000   0.00000  -0.01566
   C      0.67516   2.47829   0.00000   0.00000  -0.00000   0.02177
   C      3.58569   2.47829   0.00000   0.00000   0.00000  -0.02177
   H      1.20202   3.43300  -0.00000   0.00000   0.00000   0.04129
   H      3.05882   3.43300   0.00000   0.00000   0.00000  -0.04129
PRIMCOORD 10
     14   1
   H      1.20202  -3.43300   0.00000   0.00000  -0.00000  -0.03999
   H      3.05882  -3.43300   0.00000   0.00000  -0.00000  -0.03999
   C      0.67516  -2.47829   0.00000   0.00000  -0.00000   0.00033
   C      3.58569  -2.47829   0.00000  -0.00000  -0.00000   0.00033
   C      1.42117  -1.23630   0.00000  -0.00000  -0.00000   0.01925
   C      2.83968  -1.23630   0.00000   0.00000  -0.00000   0.01925
   C      0.72520  -0.00000  -0.00000   0.00000   0.00000  -0.03256
   C      3.53565   0.00000  -0.00000  -0.00000  -0.00000  -0.03256
   C      1.42117   1.23630  -0.00000   0.00000   0.00000   0.01925
   C      2.83968   1.23630  -0.00000   0.00000   0.00000   0.01925
   C      0.67516   2.47829   0.00000   0.00000   0.00000   0.00033
   C      3.58569   2.47829   0.00000  -0.00000   0.00000   0.00033
   H      1.20202   3.43300  -0.00000  -0.00000   0.00000  -0.03999
   H      3.05882   3.43300   0.00000  -0.00000   0.00000  -0.03999
PRIMCOORD 11
     14   1
   H      1.20202  -3.43300   0.00000   0.00628  -0.03091   0.00000
   H      3.05882  -3.43300   0.00000  -0.00628  -0.03091   0.00000
   C      0.67516  -2.47829   0.00000   0.00073  -0.03361  -0.00000
   C      3.58569  -2.47829   0.00000  -0.00073  -0.03361   0.00000
   C      1.42117  -1.23630   0.00000  -0.00268  -0.01904  -0.00000
   C      2.83968  -1.23630   0.00000   0.00268  -0.01904  -0.00000
   C      0.72520  -0.00000  -0.00000   0.00319   0.00000   0.00000
   C      3.53565   0.00000  -0.00000  -0.00319  -0.00000   0.00000
   C      1.42117   1.23630  -0.00000  -0.00268   0.01904  -0.00000
   C      2.83968   1.23630  -0.00000   0.00268   0.01904  -0.00000
   C      0.67516   2.47829   0.00000   0.00073   0.03361  -0.00000
   C      3.58569   2.47829   0.00000  -0.00073   0.03361   0.00000
   H      1.20202   3.43300  -0.00000   0.00628   0.03091   0.00000
   H      3.05882   3.43300   0.00000  -0.00628   0.03091   0.00000
PRIMCOORD 12
     14   1
   H      1.20202  -3.43300   0.00000  -0.02184  -0.03329  -0.00000
   H      3.05882  -3.43300   0.00000  -0.02184   0.03329  -0.00000
   C      0.67516  -2.47829   0.00000   0.00210  -0.01973  -0.00000
   C      3.58569  -2.47829   0.00000   0.00210   0.01973   0.00000
   C      1.42117  -1.23630   0.00000   0.00455  -0.01820   0.00000
   C      2.83968  -1.23630   0.00000   0.00455   0.01820   0.00000
   C      0.72520  -0.00000  -0.00000   0.00000  -0.01839  -0.00000
   C      3.53565   0.00000  -0.00000  -0.00000   0.01839  -0.00000
   C      1.42117   1.23630  -0.00000  -0.00455  -0.01820   0.00000
   C      2.83968   1.23630  -0.00000  -0.00455   0.01820   0.00000
   C      0.67516   2.47829   0.00000  -0.00210  -0.01973  -0.00000
   C      3.58569   2.47829   0.00000  -0.00210   0.01973   0.00000
   H      1.20202   3.43300  -0.00000   0.02184  -0.03329  -0.00000
   H      3.05882   3.43300   0.00000   0.02184   0.03329  -0.00000
PRIMCOORD 13
     14   1
   H      1.20202  -3.43300   0.00000  -0.00000  -0.00000   0.03871
   H      3.05882  -3.43300   0.00000  -0.00000  -0.00000  -0.03871
   C      0.67516  -2.47829   0.00000  -0.00000  -0.00000   0.01461
   C      3.58569  -2.47829   0.00000  -0.00000  -0.00000  -0.01461
   C      1.42117  -1.23630   0.00000  -0.00000  -0.00000  -0.01602
   C      2.83968  -1.23630   0.00000   0.00000  -0.00000   0.01602
   C      0.72520  -0.00000  -0.00000   0.00000  -0.00000  -0.03260
   C      3.53565   0.00000  -0.00000   0.00000   0.00000   0.03260
   C      1.42117   1.23630  -0.00000  -0.00000   0.00000  -0.01602
   C      2.83968   1.23630  -0.00000   0.00000   0.00000   0.01602
   C      0.67516   2.47829   0.00000  -0.00000   0.00000   0.01461
   C      3.58569   2.47829   0.00000  -0.00000   0.00000  -0.01461
   H      1.20202   3.43300  -0.00000   0.00000   0.00000   0.03871
   H      3.05882   3.43300   0.00000  -0.00000   0.00000  -0.03871
PRIMCOORD 14
     14   1
   H      1.20202  -3.43300   0.00000   0.03700   0.01978   0.00000
   H      3.05882  -3.43300   0.00000   0.03700  -0.01978  -0.00000
   C      0.67516  -2.47829   0.00000   0.01669   0.00809   0.00000
   C      3.58569  -2.47829   0.00000   0.01669  -0.00809  -0.00000
   C      1.42117  -1.23630   0.00000  -0.00914   0.00787  -0.00000
   C      2.83968  -1.23630   0.00000  -0.00914  -0.00787   0.00000
   C      0.72520  -0.00000  -0.00000  -0.02237  -0.00000   0.00000
   C      3.53565   0.00000  -0.00000  -0.02237   0.00000   0.00000
   C      1.42117   1.23630  -0.00000  -0.00914  -0.00787   0.00000
   C      2.83968   1.23630  -0.00000  -0.00914   0.00787  -0.00000
   C      0.67516   2.47829   0.00000   0.01669  -0.00809   0.00000
   C      3.58569   2.47829   0.00000   0.01669   0.00809  -0.00000
   H      1.20202   3.43300  -0.00000   0.03700  -0.01978   0.00000
   H      3.05882   3.43300   0.00000   0.03700   0.01978  -0.00000
PRIMCOORD 15
     14   1
   H      1.20202  -3.43300   0.00000  -0.00000   0.00000   0.04892
   H      3.05882  -3.43300   0.00000   0.00000  -0.00000   0.04892
   C      0.67516  -2.47829   0.00000  -0.00000   0.00000  -0.00819
   C      3.58569  -2.47829   0.00000  -0.00000  -0.00000  -0.00819
   C      1.42117  -1.23630   0.00000  -0.00000   0.00000   0.00580
   C      2.83968  -1.23630   0.00000   0.00000  -0.00000   0.00580
   C      0.72520  -0.00000  -0.00000   0.00000   0.00000  -0.00339
   C      3.53565   0.00000  -0.00000   0.00000   0.00000  -0.00339
   C      1.42117   1.23630  -0.00000   0.00000  -0.00000   0.00580
   C      2.83968   1.23630  -0.00000   0.00000   0.00000   0.00580
   C      0.67516   2.47829   0.00000  -0.00000  -0.00000  -0.00819
   C      3.58569   2.47829   0.00000   0.00000   0.00000  -0.00819
   H      1.20202   3.43300  -0.00000   0.00000  -0.00000   0.04892
   H      3.05882   3.43300   0.00000   0.00000   0.00000   0.04892
PRIMCOORD 16
     14   1
   H      1.20202  -3.43300   0.00000  -0.00000  -0.00000   0.03864
   H      3.05882  -3.43300   0.00000  -0.00000   0.00000  -0.03864
   C      0.67516  -2.47829   0.00000   0.00000  -0.00000   0.01147
   C      3.58569  -2.47829   0.00000   0.00000   0.00000  -0.01147
   C      1.42117  -1.23630   0.00000   0.00000  -0.00000  -0.02959
   C      2.83968  -1.23630   0.00000  -0.00000   0.00000   0.02959
   C      0.72520  -0.00000  -0.00000  -0.00000  -0.00000  -0.00000
   C      3.53565   0.00000  -0.00000  -0.00000   0.00000  -0.00000
   C      1.42117   1.23630  -0.00000  -0.00000   0.00000   0.02959
   C      2.83968   1.23630  -0.00000  -0.00000  -0.00000  -0.02959
   C      0.67516   2.47829   0.00000   0.00000   0.00000  -0.01147
   C      3.58569   2.47829   0.00000   0.00000  -0.00000   0.01147
   H      1.20202   3.43300  -0.00000  -0.00000   0.00000  -0.03864
   H      3.05882   3.43300   0.00000  -0.00000  -0.00000   0.03864
PRIMCOORD 17
     14   1
   H      1.20202  -3.43300   0.00000   0.00000   0.00000   0.04903
   H      3.05882  -3.43300   0.00000  -0.00000  -0.00000   0.04903
   C      0.67516  -2.47829   0.00000  -0.00000   0.00000  -0.00829
   C      3.58569  -2.47829   0.00000  -0.00000  -0.00000  -0.00829
   C      1.42117  -1.23630   0.00000   0.00000   0.00000   0.00526
   C      2.83968  -1.23630   0.00000   0.00000  -0.00000   0.00526
   C      0.72520  -0.00000  -0.00000   0.00000  -0.00000   0.00000
   C      3.53565   0.00000  -0.00000   0.00000  -0.00000   0.00000
   C      1.42117   1.23630  -0.00000   0.00000   0.00000  -0.00526
   C      2.83968   1.23630  -0.00000   0.00000   0.00000  -0.00526
   C      0.67516   2.47829   0.00000  -0.00000  -0.00000   0.00829
   C      3.58569   2.47829   0.00000  -0.00000   0.00000   0.00829
   H      1.20202   3.43300  -0.00000  -0.00000  -0.00000  -0.04903
   H      3.05882   3.43300   0.00000   0.00000   0.00000  -0.04903
PRIMCOORD 18
     14   1
   H      1.20202  -3.43300   0.00000  -0.01182  -0.03771   0.00000
   H      3.05882  -3.43300   0.00000  -0.01182   0.03771   0.00000
   C      0.67516  -2.47829   0.00000   0.01139  -0.02456  -0.00000
   C      3.58569  -2.47829   0.00000   0.01139   0.02456  -0.00000
   C      1.42117  -1.23630   0.00000  -0.00436  -0.01002   0.00000
   C      2.83968  -1.23630   0.00000  -0.00436   0.01002  -0.00000
   C      0.72520  -0.00000  -0.00000  -0.01312  -0.00000   0.00000
   C      3.53565   0.00000  -0.00000  -0.01312  -0.00000  -0.00000
   C      1.42117   1.23630  -0.00000  -0.00436   0.01002  -0.00000
   C      2.83968   1.23630  -0.00000  -0.00436  -0.01002   0.00000
   C      0.67516   2.47829   0.00000   0.01139   0.02456   0.00000
   C      3.58569   2.47829   0.00000   0.01139  -0.02456  -0.00000
   H      1.20202   3.43300  -0.00000  -0.01182   0.03771   0.00000
   H      3.05882   3.43300   0.00000  -0.01182  -0.03771  -0.00000
PRIMCOORD 19
     14   1
   H      1.20202  -3.43300   0.00000  -0.01336   0.02358   0.00000
   H      3.05882  -3.43300   0.00000   0.01336   0.02358  -0.00000
   C      0.67516  -2.47829   0.00000   0.00019   0.03033   0.00000
   C      3.58569  -2.47829   0.00000  -0.00019   0.03033  -0.00000
   C      1.42117  -1.23630   0.00000  -0.00274  -0.01351  -0.00000
   C      2.83968  -1.23630   0.00000   0.00274  -0.01351   0.00000
   C      0.72520  -0.00000  -0.00000   0.00000  -0.03621  -0.00000
   C      3.53565   0.00000  -0.00000   0.00000  -0.03621   0.00000
   C      1.42117   1.23630  -0.00000   0.00274  -0.01351   0.00000
   C      2.83968   1.23630  -0.00000  -0.00274  -0.01351   0.00000
   C      0.67516   2.47829   0.00000  -0.00019   0.03033  -0.00000
   C      3.58569   2.47829   0.00000   0.00019   0.03033   0.00000
   H      1.20202   3.43300  -0.00000   0.01336   0.02358  -0.00000
   H      3.05882   3.43300   0.00000  -0.01336   0.02358   0.00000
PRIMCOORD 20
     14   1
   H      1.20202  -3.43300   0.00000  -0.00000   0.00000  -0.02510
   H      3.05882  -3.43300   0.00000   0.00000   0.00000   0.02510
   C      0.67516  -2.47829   0.00000   0.00000   0.00000  -0.00662
   C      3.58569  -2.47829   0.00000   0.00000   0.00000   0.00662
   C      1.42117  -1.23630   0.00000  -0.00000  -0.00000   0.03108
   C      2.83968  -1.23630   0.00000  -0.00000  -0.00000  -0.03108
   C      0.72520  -0.00000  -0.00000  -0.00000  -0.00000  -0.04148
   C      3.53565   0.00000  -0.00000   0.00000  -0.00000   0.04148
   C      1.42117   1.23630  -0.00000   0.00000  -0.00000   0.03108
   C      2.83968   1.23630  -0.00000  -0.00000   0.00000  -0.03108
   C      0.67516   2.47829   0.00000  -0.00000  -0.00000  -0.00662
   C      3.58569   2.47829   0.00000   0.00000   0.00000   0.00662
   H      1.20202   3.43300  -0.00000  -0.00000   0.00000  -0.02510
   H      3.05882   3.43300   0.00000   0.00000   0.00000   0.02510
PRIMCOORD 21
     14   1
   H      1.20202  -3.43300   0.00000  -0.00000  -0.00000   0.04916
   H      3.05882  -3.43300   0.00000  -0.00000  -0.00000  -0.04916
   C      0.67516  -2.47829   0.00000   0.00000  -0.00000  -0.00900
   C      3.58569  -2.47829   0.00000  -0.00000  -0.00000   0.00900
   C      1.42117  -1.23630   0.00000  -0.00000   0.00000   0.00155
   C      2.83968  -1.23630   0.00000  -0.00000  -0.00000  -0.00155
   C      0.72520  -0.00000  -0.00000  -0.00000   0.00000   0.00021
   C      3.53565   0.00000  -0.00000   0.00000   0.00000  -0.00021
   C      1.42117   1.23630  -0.00000   0.00000   0.00000   0.00155
   C      2.83968   1.23630  -0.00000  -0.00000   0.00000  -0.00155
   C      0.67516   2.47829   0.00000   0.00000   0.00000  -0.00900
   C      3.58569   2.47829   0.00000   0.00000  -0.00000   0.00900
   H      1.20202   3.43300  -0.00000   0.00000  -0.00000   0.04916
   H      3.05882   3.43300   0.00000  -0.00000  -0.00000  -0.04916
PRIMCOORD 22
     14   1
   H      1.20202  -3.43300   0.00000  -0.00000  -0.00000   0.04911
   H      3.05882  -3.43300   0.00000   0.00000   0.00000  -0.04911
   C      0.67516  -2.47829   0.00000  -0.00000  -0.00000  -0.00923
   C      3.58569  -2.47829   0.00000   0.00000  -0.00000   0.00923
   C      1.42117  -1.23630   0.00000   0.00000   0.00000   0.00180
   C      2.83968  -1.23630   0.00000   0.00000   0.00000  -0.00180
   C      0.72520  -0.00000  -0.00000   0.00000   0.00000  -0.00000
   C      3.53565   0.00000  -0.00000  -0.00000   0.00000   0.00000
   C      1.42117   1.23630  -0.00000  -0.00000  -0.00000  -0.00180
   C      2.83968   1.23630  -0.00000  -0.00000  -0.00000   0.00180
   C      0.67516   2.47829   0.00000  -0.00000   0.00000   0.00923
   C      3.58569   2.47829   0.00000   0.00000  -0.00000  -0.00923
   H      1.20202   3.43300  -0.00000   0.00000  -0.00000  -0.04911
   H      3.05882   3.43300   0.00000  -0.00000  -0.00000   0.04911
PRIMCOORD 23
     14   1
   H      1.20202  -3.43300   0.00000   0.03499   0.00109   0.00000
   H      3.05882  -3.43300   0.00000   0.03499  -0.00109  -0.00000
   C      0.67516  -2.47829   0.00000   0.01486  -0.01069  -0.00000
   C      3.58569  -2.47829   0.00000   0.01486   0.01069   0.00000
   C      1.42117  -1.23630   0.00000  -0.03028  -0.00125  -0.00000
   C      2.83968  -1.23630   0.00000  -0.03028   0.00125   0.00000
   C      0.72520  -0.00000  -0.00000   0.00000   0.00651   0.00000
   C      3.53565   0.00000  -0.00000   0.00000  -0.00651  -0.00000
   C      1.42117   1.23630  -0.00000   0.03028  -0.00125  -0.00000
   C      2.83968   1.23630  -0.00000   0.03028   0.00125   0.00000
   C      0.67516   2.47829   0.00000  -0.01486  -0.01069   0.00000
   C      3.58569   2.47829   0.00000  -0.01486   0.01069   0.00000
   H      1.20202   3.43300  -0.00000  -0.03499   0.00109  -0.00000
   H      3.05882   3.43300   0.00000  -0.03499  -0.00109   0.00000
PRIMCOORD 24
     14   1
   H      1.20202  -3.43300   0.00000  -0.03953  -0.01662  -0.00000
   H      3.05882  -3.43300   0.00000   0.03953  -0.01662   0.00000
   C      0.67516  -2.47829   0.00000  -0.00548   0.00269   0.00000
   C      3.58569  -2.47829   0.00000   0.00548   0.00269  -0.00000
   C      1.42117  -1.23630   0.00000   0.02468  -0.00296   0.00000
   C      2.83968  -1.23630   0.00000  -0.02468  -0.00296  -0.00000
   C      0.72520  -0.00000  -0.00000   0.00000   0.00355  -0.00000
   C      3.53565   0.00000  -0.00000  -0.00000   0.00355   0.00000
   C      1.42117   1.23630  -0.00000  -0.02468  -0.00296   0.00000
   C      2.83968   1.23630  -0.00000   0.02468  -0.00296  -0.00000
   C      0.67516   2.47829   0.00000   0.00548   0.00269   0.00000
   C      3.58569   2.47829   0.00000  -0.00548   0.00269   0.00000
   H      1.20202   3.43300  -0.00000   0.03953  -0.01662  -0.00000
   H      3.05882   3.43300   0.00000  -0.03953  -0.01662   0.00000
PRIMCOORD 25
     14   1
   H      1.20202  -3.43300   0.00000  -0.03257  -0.03119  -0.00000
   H      3.05882  -3.43300   0.00000  -0.03257   0.03119  -0.00000
   C      0.67516  -2.47829   0.00000   0.00147  -0.01154   0.00000
   C      3.58569  -2.47829   0.00000   0.00147   0.01154   0.00000
   C      1.42117  -1.23630   0.00000   0.00307   0.01200   0.00000
   C      2.83968  -1.23630   0.00000   0.00307  -0.01200   0.00000
   C      0.72520  -0.00000  -0.00000   0.00000   0.01884   0.00000
   C      3.53565   0.00000  -0.00000  -0.00000  -0.01884   0.00000
   C      1.42117   1.23630  -0.00000  -0.00307   0.01200   0.00000
   C      2.83968   1.23630  -0.00000  -0.00307  -0.01200   0.00000
   C      0.67516   2.47829   0.00000  -0.00147  -0.01154   0.00000
   C      3.58569   2.47829   0.00000  -0.00147   0.01154   0.00000
   H      1.20202   3.43300  -0.00000   0.03257  -0.03119   0.00000
   H      3.05882   3.43300   0.00000   0.03257   0.03119   0.00000
PRIMCOORD 26
     14   1
   H      1.20202  -3.43300   0.00000   0.03819   0.00429   0.00000
   H      3.05882  -3.43300   0.00000  -0.03819   0.00429   0.00000
   C      0.67516  -2.47829   0.00000   0.00547  -0.01365   0.00000
   C      3.58569  -2.47829   0.00000  -0.00547  -0.01365   0.00000
   C      1.42117  -1.23630   0.00000  -0.00768   0.02438  -0.00000
   C      2.83968  -1.23630   0.00000   0.00768   0.02438  -0.00000
   C      0.72520  -0.00000  -0.00000  -0.01753   0.00000  -0.00000
   C      3.53565   0.00000  -0.00000   0.01753  -0.00000   0.00000
   C      1.42117   1.23630  -0.00000  -0.00768  -0.02438   0.00000
   C      2.83968   1.23630  -0.00000   0.00768  -0.02438   0.00000
   C      0.67516   2.47829   0.00000   0.00547   0.01365  -0.00000
   C      3.58569   2.47829   0.00000  -0.00547   0.01365   0.00000
   H      1.20202   3.43300  -0.00000   0.03819  -0.00429  -0.00000
   H      3.05882   3.43300   0.00000  -0.03819  -0.00429  -0.00000
PRIMCOORD 27
     14   1
   H      1.20202  -3.43300   0.00000  -0.04007  -0.01920   0.00000
   H      3.05882  -3.43300   0.00000  -0.04007   0.01920   0.00000
   C      0.67516  -2.47829   0.00000  -0.00149   0.00295  -0.00000
   C      3.58569  -2.47829   0.00000  -0.00149  -0.00295   0.00000
   C      1.42117  -1.23630   0.00000   0.01525   0.00810  -0.00000
   C      2.83968  -1.23630   0.00000   0.01525  -0.00810   0.00000
   C      0.72520  -0.00000  -0.00000  -0.02083  -0.00000   0.00000
   C      3.53565   0.00000  -0.00000  -0.02083   0.00000  -0.00000
   C      1.42117   1.23630  -0.00000   0.01525  -0.00810  -0.00000
   C      2.83968   1.23630  -0.00000   0.01525   0.00810  -0.00000
   C      0.67516   2.47829   0.00000  -0.00149  -0.00295   0.00000
   C      3.58569   2.47829   0.00000  -0.00149   0.00295   0.00000
   H      1.20202   3.43300  -0.00000  -0.04007   0.01920  -0.00000
   H      3.05882   3.43300   0.00000  -0.04007  -0.01920   0.00000
PRIMCOORD 28
     14   1
   H      1.20202  -3.43300   0.00000  -0.04135  -0.02606  -0.00000
   H      3.05882  -3.43300   0.00000   0.04135  -0.02606  -0.00000
   C      0.67516  -2.47829   0.00000  -0.00201  -0.00324  -0.00000
   C      3.58569  -2.47829   0.00000   0.00201  -0.00324  -0.00000
   C      1.42117  -1.23630   0.00000   0.00504   0.00774  -0.00000
   C      2.83968  -1.23630   0.00000  -0.00504   0.00774   0.00000
   C      0.72520  -0.00000  -0.00000   0.00472   0.00000  -0.00000
   C      3.53565   0.00000  -0.00000  -0.00472   0.00000  -0.00000
   C      1.42117   1.23630  -0.00000   0.00504  -0.00774  -0.00000
   C      2.83968   1.23630  -0.00000  -0.00504  -0.00774   0.00000
   C      0.67516   2.47829   0.00000  -0.00201   0.00324  -0.00000
   C      3.58569   2.47829   0.00000   0.00201   0.00324  -0.00000
   H      1.20202   3.43300  -0.00000  -0.04135   0.02606  -0.00000
   H      3.05882   3.43300   0.00000   0.04135   0.02606   0.00000
PRIMCOORD 29
     14   1
   H      1.20202  -3.43300   0.00000  -0.03967  -0.01813  -0.00000
   H      3.05882  -3.43300   0.00000   0.03967  -0.01813  -0.00000
   C      0.67516  -2.47829   0.00000  -0.00130   0.00359   0.00000
   C      3.58569  -2.47829   0.00000   0.00130   0.00359   0.00000
   C      1.42117  -1.23630   0.00000  -0.01007  -0.00610  -0.00000
   C      2.83968  -1.23630   0.00000   0.01007  -0.00610   0.00000
   C      0.72520  -0.00000  -0.00000  -0.02980   0.00000  -0.00000
   C      3.53565   0.00000  -0.00000   0.02980   0.00000  -0.00000
   C      1.42117   1.23630  -0.00000  -0.01007   0.00610   0.00000
   C      2.83968   1.23630  -0.00000   0.01007   0.00610   0.00000
   C      0.67516   2.47829   0.00000  -0.00130  -0.00359   0.00000
   C      3.58569   2.47829   0.00000   0.00130  -0.00359  -0.00000
   H      1.20202   3.43300  -0.00000  -0.03967   0.01813   0.00000
   H      3.05882   3.43300   0.00000   0.03967   0.01813   0.00000
PRIMCOORD 30
     14   1
   H      1.20202  -3.43300   0.00000  -0.04375  -0.02072  -0.00000
   H      3.05882  -3.43300   0.00000   0.04375  -0.02072   0.00000
   C      0.67516  -2.47829   0.00000  -0.00388   0.00191   0.00000
   C      3.58569  -2.47829   0.00000   0.00388   0.00191  -0.00000
   C      1.42117  -1.23630   0.00000  -0.00923  -0.00432   0.00000
   C      2.83968  -1.23630   0.00000   0.00923  -0.00432  -0.00000
   C      0.72520  -0.00000  -0.00000   0.00000   0.00823   0.00000
   C      3.53565   0.00000  -0.00000  -0.00000   0.00823   0.00000
   C      1.42117   1.23630  -0.00000   0.00923  -0.00432   0.00000
   C      2.83968   1.23630  -0.00000  -0.00923  -0.00432   0.00000
   C      0.67516   2.47829   0.00000   0.00388   0.00191  -0.00000
   C      3.58569   2.47829   0.00000  -0.00388   0.00191  -0.00000
   H      1.20202   3.43300  -0.00000   0.04375  -0.02072  -0.00000
   H      3.05882   3.43300   0.00000  -0.04375  -0.02072  -0.00000
PRIMCOORD 31
     14   1
   H      1.20202  -3.43300   0.00000   0.03472   0.02578   0.00000
   H      3.05882  -3.43300   0.00000  -0.03472   0.02578  -0.00000
   C      0.67516  -2.47829   0.00000  -0.00084   0.00503   0.00000
   C      3.58569  -2.47829   0.00000   0.00084   0.00503  -0.00000
   C      1.42117  -1.23630   0.00000   0.00153  -0.01855   0.00000
   C      2.83968  -1.23630   0.00000  -0.00153  -0.01855   0.00000
   C      0.72520  -0.00000  -0.00000   0.00000   0.02270   0.00000