ANIMSTEPS  54
CRYSTAL
PRIMVEC
    4.260844976    0.000000000    0.000000000
    0.000000000   12.000000071    0.000000000
    0.000000000    0.000000000    8.000000189
PRIMCOORD  1
     18   1
   H      0.80760  -2.79578   1.28742  -0.01922  -0.00059   0.01436
   H      1.23967  -3.34818  -0.32970   0.00081  -0.02209   0.02631
   H      3.02118  -3.34818   0.32970  -0.00081  -0.02209  -0.02631
   H      3.45324  -2.79578  -1.28742   0.01922  -0.00059  -0.01436
   C      0.72758  -2.53960   0.20969  -0.00315  -0.01407   0.00990
   C      3.53326  -2.53960  -0.20969   0.00315  -0.01407  -0.00990
   C      1.43079  -1.21679   0.01330   0.00020  -0.01705   0.00226
   C      2.83005  -1.21679  -0.01330  -0.00020  -0.01705  -0.00226
   C      0.74552   0.00000  -0.00074   0.00000  -0.01681   0.00000
   C      3.51532   0.00000   0.00074   0.00000  -0.01681   0.00000
   C      1.43079   1.21679   0.01330  -0.00020  -0.01705  -0.00226
   C      2.83005   1.21679  -0.01330   0.00020  -0.01705   0.00226
   C      0.72758   2.53960   0.20969   0.00315  -0.01407  -0.00990
   C      3.53326   2.53960  -0.20969  -0.00315  -0.01407   0.00990
   H     -0.80760   2.79578  -1.28742  -0.01922  -0.00059   0.01436
   H     -1.23967   3.34818   0.32970   0.00081  -0.02209   0.02631
   H     -3.02118   3.34818  -0.32970  -0.00081  -0.02209  -0.02631
   H     -3.45324   2.79578   1.28742   0.01922  -0.00059  -0.01436
PRIMCOORD  2
     18   1
   H      0.80760  -2.79578   1.28742   0.02211  -0.02371  -0.01651
   H      1.23967  -3.34818  -0.32970  -0.00102   0.00073  -0.03018
   H      3.02118  -3.34818   0.32970   0.00102   0.00073   0.03018
   H      3.45324  -2.79578  -1.28742  -0.02211  -0.02371   0.01651
   C      0.72758  -2.53960   0.20969   0.00362  -0.00838  -0.01142
   C      3.53326  -2.53960  -0.20969  -0.00362  -0.00838   0.01142
   C      1.43079  -1.21679   0.01330  -0.00010  -0.00521  -0.00274
   C      2.83005  -1.21679  -0.01330   0.00010  -0.00521   0.00274
   C      0.74552   0.00000  -0.00074  -0.00000  -0.00553  -0.00000
   C      3.51532   0.00000   0.00074  -0.00000  -0.00553  -0.00000
   C      1.43079   1.21679   0.01330   0.00010  -0.00521   0.00274
   C      2.83005   1.21679  -0.01330  -0.00010  -0.00521  -0.00274
   C      0.72758   2.53960   0.20969  -0.00362  -0.00838   0.01142
   C      3.53326   2.53960  -0.20969   0.00362  -0.00838  -0.01142
   H     -0.80760   2.79578  -1.28742   0.02211  -0.02371  -0.01651
   H     -1.23967   3.34818   0.32970  -0.00102   0.00073  -0.03018
   H     -3.02118   3.34818  -0.32970   0.00102   0.00073   0.03018
   H     -3.45324   2.79578   1.28742  -0.02211  -0.02371   0.01651
PRIMCOORD  3
     18   1
   H      0.80760  -2.79578   1.28742  -0.00757   0.00466  -0.02036
   H      1.23967  -3.34818  -0.32970  -0.00764  -0.00136  -0.01834
   H      3.02118  -3.34818   0.32970  -0.00764   0.00136  -0.01834
   H      3.45324  -2.79578  -1.28742  -0.00757  -0.00466  -0.02036
   C      0.72758  -2.53960   0.20969  -0.00752   0.00068  -0.02132
   C      3.53326  -2.53960  -0.20969  -0.00752  -0.00068  -0.02132
   C      1.43079  -1.21679   0.01330  -0.00747   0.00003  -0.02583
   C      2.83005  -1.21679  -0.01330  -0.00747  -0.00003  -0.02583
   C      0.74552   0.00000  -0.00074  -0.00731   0.00000  -0.02640
   C      3.51532   0.00000   0.00074  -0.00731   0.00000  -0.02640
   C      1.43079   1.21679   0.01330  -0.00747  -0.00003  -0.02583
   C      2.83005   1.21679  -0.01330  -0.00747   0.00003  -0.02583
   C      0.72758   2.53960   0.20969  -0.00752  -0.00068  -0.02132
   C      3.53326   2.53960  -0.20969  -0.00752   0.00068  -0.02132
   H     -0.80760   2.79578  -1.28742  -0.00757   0.00466  -0.02036
   H     -1.23967   3.34818   0.32970  -0.00764  -0.00136  -0.01834
   H     -3.02118   3.34818  -0.32970  -0.00764   0.00136  -0.01834
   H     -3.45324   2.79578   1.28742  -0.00757  -0.00466  -0.02036
PRIMCOORD  4
     18   1
   H      0.80760  -2.79578   1.28742   0.00041   0.01147   0.02613
   H      1.23967  -3.34818  -0.32970   0.00021  -0.00292   0.03108
   H      3.02118  -3.34818   0.32970   0.00021   0.00292   0.03108
   H      3.45324  -2.79578  -1.28742   0.00041  -0.01147   0.02613
   C      0.72758  -2.53960   0.20969   0.00025   0.00191   0.02390
   C      3.53326  -2.53960  -0.20969   0.00025  -0.00191   0.02390
   C      1.43079  -1.21679   0.01330   0.00017   0.00015   0.01166
   C      2.83005  -1.21679  -0.01330   0.00017  -0.00015   0.01166
   C      0.74552   0.00000  -0.00074  -0.00000  -0.00004  -0.00000
   C      3.51532   0.00000   0.00074  -0.00000   0.00004  -0.00000
   C      1.43079   1.21679   0.01330  -0.00017   0.00015  -0.01166
   C      2.83005   1.21679  -0.01330  -0.00017  -0.00015  -0.01166
   C      0.72758   2.53960   0.20969  -0.00025   0.00191  -0.02390
   C      3.53326   2.53960  -0.20969  -0.00025  -0.00191  -0.02390
   H     -0.80760   2.79578  -1.28742  -0.00041  -0.01147  -0.02613
   H     -1.23967   3.34818   0.32970  -0.00021   0.00292  -0.03108
   H     -3.02118   3.34818  -0.32970  -0.00021  -0.00292  -0.03108
   H     -3.45324   2.79578   1.28742  -0.00041   0.01147  -0.02613
PRIMCOORD  5
     18   1
   H      0.80760  -2.79578   1.28742  -0.02304   0.02043   0.01732
   H      1.23967  -3.34818  -0.32970   0.00076  -0.00722   0.03217
   H      3.02118  -3.34818   0.32970  -0.00076  -0.00722  -0.03217
   H      3.45324  -2.79578  -1.28742   0.02304   0.02043  -0.01732
   C      0.72758  -2.53960   0.20969  -0.00383   0.00304   0.01168
   C      3.53326  -2.53960  -0.20969   0.00383   0.00304  -0.01168
   C      1.43079  -1.21679   0.01330   0.00008  -0.00039   0.00178
   C      2.83005  -1.21679  -0.01330  -0.00008  -0.00039  -0.00178
   C      0.74552   0.00000  -0.00074   0.00017   0.00000   0.00078
   C      3.51532   0.00000   0.00074  -0.00017   0.00000  -0.00078
   C      1.43079   1.21679   0.01330   0.00008   0.00039   0.00178
   C      2.83005   1.21679  -0.01330  -0.00008   0.00039  -0.00178
   C      0.72758   2.53960   0.20969  -0.00383  -0.00304   0.01168
   C      3.53326   2.53960  -0.20969   0.00383  -0.00304  -0.01168
   H     -0.80760   2.79578  -1.28742   0.02304  -0.02043  -0.01732
   H     -1.23967   3.34818   0.32970  -0.00076   0.00722  -0.03217
   H     -3.02118   3.34818  -0.32970   0.00076   0.00722   0.03217
   H     -3.45324   2.79578   1.28742  -0.02304  -0.02043   0.01732
PRIMCOORD  6
     18   1
   H      0.80760  -2.79578   1.28742   0.02262  -0.00181  -0.00810
   H      1.23967  -3.34818  -0.32970   0.02243   0.00048  -0.00894
   H      3.02118  -3.34818   0.32970   0.02243  -0.00048  -0.00894
   H      3.45324  -2.79578  -1.28742   0.02262   0.00181  -0.00810
   C      0.72758  -2.53960   0.20969   0.02241  -0.00032  -0.00774
   C      3.53326  -2.53960  -0.20969   0.02241   0.00032  -0.00774
   C      1.43079  -1.21679   0.01330   0.02186  -0.00012  -0.00632
   C      2.83005  -1.21679  -0.01330   0.02186   0.00012  -0.00632
   C      0.74552   0.00000  -0.00074   0.02170  -0.00000  -0.00643
   C      3.51532   0.00000   0.00074   0.02170  -0.00000  -0.00643
   C      1.43079   1.21679   0.01330   0.02186   0.00012  -0.00632
   C      2.83005   1.21679  -0.01330   0.02186  -0.00012  -0.00632
   C      0.72758   2.53960   0.20969   0.02241   0.00032  -0.00774
   C      3.53326   2.53960  -0.20969   0.02241  -0.00032  -0.00774
   H     -0.80760   2.79578  -1.28742   0.02262  -0.00181  -0.00810
   H     -1.23967   3.34818   0.32970   0.02243   0.00048  -0.00894
   H     -3.02118   3.34818  -0.32970   0.02243  -0.00048  -0.00894
   H     -3.45324   2.79578   1.28742   0.02262   0.00181  -0.00810
PRIMCOORD  7
     18   1
   H      0.80760  -2.79578   1.28742  -0.00042  -0.02554  -0.02010
   H      1.23967  -3.34818  -0.32970  -0.00069   0.00718  -0.03134
   H      3.02118  -3.34818   0.32970  -0.00069  -0.00718  -0.03134
   H      3.45324  -2.79578  -1.28742  -0.00042   0.02554  -0.02010
   C      0.72758  -2.53960   0.20969  -0.00089  -0.00381  -0.01488
   C      3.53326  -2.53960  -0.20969  -0.00089   0.00381  -0.01488
   C      1.43079  -1.21679   0.01330  -0.00110  -0.00013   0.00865
   C      2.83005  -1.21679  -0.01330  -0.00110   0.00013   0.00865
   C      0.74552   0.00000  -0.00074  -0.00115   0.00000   0.01384
   C      3.51532   0.00000   0.00074  -0.00115   0.00000   0.01384
   C      1.43079   1.21679   0.01330  -0.00110   0.00013   0.00865
   C      2.83005   1.21679  -0.01330  -0.00110  -0.00013   0.00865
   C      0.72758   2.53960   0.20969  -0.00089   0.00381  -0.01488
   C      3.53326   2.53960  -0.20969  -0.00089  -0.00381  -0.01488
   H     -0.80760   2.79578  -1.28742  -0.00042  -0.02554  -0.02010
   H     -1.23967   3.34818   0.32970  -0.00069   0.00718  -0.03134
   H     -3.02118   3.34818  -0.32970  -0.00069  -0.00718  -0.03134
   H     -3.45324   2.79578   1.28742  -0.00042   0.02554  -0.02010
PRIMCOORD  8
     18   1
   H      0.80760  -2.79578   1.28742   0.01024  -0.03367  -0.01008
   H      1.23967  -3.34818  -0.32970   0.00421   0.00722  -0.02588
   H      3.02118  -3.34818   0.32970   0.00421  -0.00722  -0.02588
   H      3.45324  -2.79578  -1.28742   0.01024   0.03367  -0.01008
   C      0.72758  -2.53960   0.20969   0.00632  -0.00621  -0.00310
   C      3.53326  -2.53960  -0.20969   0.00632   0.00621  -0.00310
   C      1.43079  -1.21679   0.01330   0.00279  -0.00183   0.01779
   C      2.83005  -1.21679  -0.01330   0.00279   0.00183   0.01779
   C      0.74552   0.00000  -0.00074   0.00000  -0.00297   0.00000
   C      3.51532   0.00000   0.00074   0.00000   0.00297  -0.00000
   C      1.43079   1.21679   0.01330  -0.00279  -0.00183  -0.01779
   C      2.83005   1.21679  -0.01330  -0.00279   0.00183  -0.01779
   C      0.72758   2.53960   0.20969  -0.00632  -0.00621   0.00310
   C      3.53326   2.53960  -0.20969  -0.00632   0.00621   0.00310
   H     -0.80760   2.79578  -1.28742  -0.01024   0.03367   0.01008
   H     -1.23967   3.34818   0.32970  -0.00421  -0.00722   0.02588
   H     -3.02118   3.34818  -0.32970  -0.00421   0.00722   0.02588
   H     -3.45324   2.79578   1.28742  -0.01024  -0.03367   0.01008
PRIMCOORD  9
     18   1
   H      0.80760  -2.79578   1.28742   0.02917   0.00906   0.00437
   H      1.23967  -3.34818  -0.32970   0.02530  -0.00101   0.00635
   H      3.02118  -3.34818   0.32970   0.02530   0.00101   0.00635
   H      3.45324  -2.79578  -1.28742   0.02917  -0.00906   0.00437
   C      0.72758  -2.53960   0.20969   0.02473   0.00101   0.00266
   C      3.53326  -2.53960  -0.20969   0.02473  -0.00101   0.00266
   C      1.43079  -1.21679   0.01330   0.01243   0.00062  -0.00948
   C      2.83005  -1.21679  -0.01330   0.01243  -0.00062  -0.00948
   C      0.74552   0.00000  -0.00074   0.00000  -0.00214   0.00000
   C      3.51532   0.00000   0.00074   0.00000   0.00214   0.00000
   C      1.43079   1.21679   0.01330  -0.01243   0.00062   0.00948
   C      2.83005   1.21679  -0.01330  -0.01243  -0.00062   0.00948
   C      0.72758   2.53960   0.20969  -0.02473   0.00101  -0.00266
   C      3.53326   2.53960  -0.20969  -0.02473  -0.00101  -0.00266
   H     -0.80760   2.79578  -1.28742  -0.02917  -0.00906  -0.00437
   H     -1.23967   3.34818   0.32970  -0.02530   0.00101  -0.00635
   H     -3.02118   3.34818  -0.32970  -0.02530  -0.00101  -0.00635
   H     -3.45324   2.79578   1.28742  -0.02917   0.00906  -0.00437
PRIMCOORD 10
     18   1
   H      0.80760  -2.79578   1.28742   0.00282   0.03337   0.00007
   H      1.23967  -3.34818  -0.32970  -0.00606  -0.00065   0.00874
   H      3.02118  -3.34818   0.32970   0.00606  -0.00065  -0.00874
   H      3.45324  -2.79578  -1.28742  -0.00282   0.03337  -0.00007
   C      0.72758  -2.53960   0.20969  -0.00016   0.01241  -0.00489
   C      3.53326  -2.53960  -0.20969   0.00016   0.01241   0.00489
   C      1.43079  -1.21679   0.01330   0.00008   0.00421  -0.02399
   C      2.83005  -1.21679  -0.01330  -0.00008   0.00421   0.02399
   C      0.74552   0.00000  -0.00074  -0.00171  -0.00000  -0.03139
   C      3.51532   0.00000   0.00074   0.00171   0.00000   0.03139
   C      1.43079   1.21679   0.01330   0.00008  -0.00421  -0.02399
   C      2.83005   1.21679  -0.01330  -0.00008  -0.00421   0.02399
   C      0.72758   2.53960   0.20969  -0.00016  -0.01241  -0.00489
   C      3.53326   2.53960  -0.20969   0.00016  -0.01241   0.00489
   H     -0.80760   2.79578  -1.28742  -0.00282  -0.03337  -0.00007
   H     -1.23967   3.34818   0.32970   0.00606   0.00065  -0.00874
   H     -3.02118   3.34818  -0.32970  -0.00606   0.00065   0.00874
   H     -3.45324   2.79578   1.28742   0.00282  -0.03337   0.00007
PRIMCOORD 11
     18   1
   H      0.80760  -2.79578   1.28742  -0.01386   0.03152   0.00338
   H      1.23967  -3.34818  -0.32970   0.00149  -0.00816   0.02139
   H      3.02118  -3.34818   0.32970   0.00149   0.00816   0.02139
   H      3.45324  -2.79578  -1.28742  -0.01386  -0.03152   0.00338
   C      0.72758  -2.53960   0.20969  -0.00283   0.00532  -0.00387
   C      3.53326  -2.53960  -0.20969  -0.00283  -0.00532  -0.00387
   C      1.43079  -1.21679   0.01330   0.00238   0.00059  -0.01412
   C      2.83005  -1.21679  -0.01330   0.00238  -0.00059  -0.01412
   C      0.74552   0.00000  -0.00074   0.00404  -0.00000   0.03198
   C      3.51532   0.00000   0.00074   0.00404   0.00000   0.03198
   C      1.43079   1.21679   0.01330   0.00238  -0.00059  -0.01412
   C      2.83005   1.21679  -0.01330   0.00238   0.00059  -0.01412
   C      0.72758   2.53960   0.20969  -0.00283  -0.00532  -0.00387
   C      3.53326   2.53960  -0.20969  -0.00283   0.00532  -0.00387
   H     -0.80760   2.79578  -1.28742  -0.01386   0.03152   0.00338
   H     -1.23967   3.34818   0.32970   0.00149  -0.00816   0.02139
   H     -3.02118   3.34818  -0.32970   0.00149   0.00816   0.02139
   H     -3.45324   2.79578   1.28742  -0.01386  -0.03152   0.00338
PRIMCOORD 12
     18   1
   H      0.80760  -2.79578   1.28742  -0.00575  -0.01156   0.00685
   H      1.23967  -3.34818  -0.32970   0.00385  -0.03114   0.01424
   H      3.02118  -3.34818   0.32970  -0.00385  -0.03114  -0.01424
   H      3.45324  -2.79578  -1.28742   0.00575  -0.01156  -0.00685
   C      0.72758  -2.53960   0.20969  -0.00086  -0.02682   0.00305
   C      3.53326  -2.53960  -0.20969   0.00086  -0.02682  -0.00305
   C      1.43079  -1.21679   0.01330  -0.00195  -0.01367  -0.00925
   C      2.83005  -1.21679  -0.01330   0.00195  -0.01367   0.00925
   C      0.74552   0.00000  -0.00074   0.00295  -0.00000  -0.01335
   C      3.51532   0.00000   0.00074  -0.00295   0.00000   0.01335
   C      1.43079   1.21679   0.01330  -0.00195   0.01367  -0.00925
   C      2.83005   1.21679  -0.01330   0.00195   0.01367   0.00925
   C      0.72758   2.53960   0.20969  -0.00086   0.02682   0.00305
   C      3.53326   2.53960  -0.20969   0.00086   0.02682  -0.00305
   H     -0.80760   2.79578  -1.28742   0.00575   0.01156  -0.00685
   H     -1.23967   3.34818   0.32970  -0.00385   0.03114  -0.01424
   H     -3.02118   3.34818  -0.32970   0.00385   0.03114   0.01424
   H     -3.45324   2.79578   1.28742  -0.00575   0.01156   0.00685
PRIMCOORD 13
     18   1
   H      0.80760  -2.79578   1.28742   0.00129  -0.01437   0.00581
   H      1.23967  -3.34818  -0.32970  -0.02214  -0.03056   0.00262
   H      3.02118  -3.34818   0.32970  -0.02214   0.03056   0.00262
   H      3.45324  -2.79578  -1.28742   0.00129   0.01437   0.00581
   C      0.72758  -2.53960   0.20969  -0.00142  -0.01849   0.00511
   C      3.53326  -2.53960  -0.20969  -0.00142   0.01849   0.00511
   C      1.43079  -1.21679   0.01330   0.00027  -0.01634  -0.00834
   C      2.83005  -1.21679  -0.01330   0.00027   0.01634  -0.00834
   C      0.74552   0.00000  -0.00074  -0.00000  -0.01552   0.00000
   C      3.51532   0.00000   0.00074   0.00000   0.01552  -0.00000
   C      1.43079   1.21679   0.01330  -0.00027  -0.01634   0.00834
   C      2.83005   1.21679  -0.01330  -0.00027   0.01634   0.00834
   C      0.72758   2.53960   0.20969   0.00142  -0.01849  -0.00511
   C      3.53326   2.53960  -0.20969   0.00142   0.01849  -0.00511
   H     -0.80760   2.79578  -1.28742  -0.00129   0.01437  -0.00581
   H     -1.23967   3.34818   0.32970   0.02214   0.03056  -0.00262
   H     -3.02118   3.34818  -0.32970   0.02214  -0.03056  -0.00262
   H     -3.45324   2.79578   1.28742  -0.00129  -0.01437  -0.00581
PRIMCOORD 14
     18   1
   H      0.80760  -2.79578   1.28742   0.00082  -0.03480  -0.00315
   H      1.23967  -3.34818  -0.32970   0.00663   0.01604  -0.01758
   H      3.02118  -3.34818   0.32970  -0.00663   0.01604   0.01758
   H      3.45324  -2.79578  -1.28742  -0.00082  -0.03480   0.00315
   C      0.72758  -2.53960   0.20969   0.00087  -0.00249   0.00481
   C      3.53326  -2.53960  -0.20969  -0.00087  -0.00249  -0.00481
   C      1.43079  -1.21679   0.01330   0.00021   0.00253   0.02505
   C      2.83005  -1.21679  -0.01330  -0.00021   0.00253  -0.02505
   C      0.74552   0.00000  -0.00074  -0.00000   0.00263   0.00000
   C      3.51532   0.00000   0.00074  -0.00000   0.00263   0.00000
   C      1.43079   1.21679   0.01330  -0.00021   0.00253  -0.02505
   C      2.83005   1.21679  -0.01330   0.00021   0.00253   0.02505
   C      0.72758   2.53960   0.20969  -0.00087  -0.00249  -0.00481
   C      3.53326   2.53960  -0.20969   0.00087  -0.00249   0.00481
   H     -0.80760   2.79578  -1.28742   0.00082  -0.03480  -0.00315
   H     -1.23967   3.34818   0.32970   0.00663   0.01604  -0.01758
   H     -3.02118   3.34818  -0.32970  -0.00663   0.01604   0.01758
   H     -3.45324   2.79578   1.28742  -0.00082  -0.03480   0.00315
PRIMCOORD 15
     18   1
   H      0.80760  -2.79578   1.28742  -0.03581   0.01223  -0.00062
   H      1.23967  -3.34818  -0.32970  -0.01325  -0.00965   0.01409
   H      3.02118  -3.34818   0.32970  -0.01325   0.00965   0.01409
   H      3.45324  -2.79578  -1.28742  -0.03581  -0.01223  -0.00062
   C      0.72758  -2.53960   0.20969  -0.01468   0.00184  -0.00482
   C      3.53326  -2.53960  -0.20969  -0.01468  -0.00184  -0.00482
   C      1.43079  -1.21679   0.01330   0.01018  -0.00148   0.00751
   C      2.83005  -1.21679  -0.01330   0.01018   0.00148   0.00751
   C      0.74552   0.00000  -0.00074   0.01812  -0.00000  -0.00800
   C      3.51532   0.00000   0.00074   0.01812   0.00000  -0.00800
   C      1.43079   1.21679   0.01330   0.01018   0.00148   0.00751
   C      2.83005   1.21679  -0.01330   0.01018  -0.00148   0.00751
   C      0.72758   2.53960   0.20969  -0.01468  -0.00184  -0.00482
   C      3.53326   2.53960  -0.20969  -0.01468   0.00184  -0.00482
   H     -0.80760   2.79578  -1.28742  -0.03581   0.01223  -0.00062
   H     -1.23967   3.34818   0.32970  -0.01325  -0.00965   0.01409
   H     -3.02118   3.34818  -0.32970  -0.01325   0.00965   0.01409
   H     -3.45324   2.79578   1.28742  -0.03581  -0.01223  -0.00062
PRIMCOORD 16
     18   1
   H      0.80760  -2.79578   1.28742   0.00821  -0.02649   0.00264
   H      1.23967  -3.34818  -0.32970  -0.02714  -0.01954  -0.01171
   H      3.02118  -3.34818   0.32970  -0.02714   0.01954  -0.01171
   H      3.45324  -2.79578  -1.28742   0.00821   0.02649   0.00264
   C      0.72758  -2.53960   0.20969  -0.00396  -0.01616   0.00640
   C      3.53326  -2.53960  -0.20969  -0.00396   0.01616   0.00640
   C      1.43079  -1.21679   0.01330   0.00215  -0.00740  -0.00763
   C      2.83005  -1.21679  -0.01330   0.00215   0.00740  -0.00763
   C      0.74552   0.00000  -0.00074   0.00699  -0.00000   0.00418
   C      3.51532   0.00000   0.00074   0.00699  -0.00000   0.00418
   C      1.43079   1.21679   0.01330   0.00215   0.00740  -0.00763
   C      2.83005   1.21679  -0.01330   0.00215  -0.00740  -0.00763
   C      0.72758   2.53960   0.20969  -0.00396   0.01616   0.00640
   C      3.53326   2.53960  -0.20969  -0.00396  -0.01616   0.00640
   H     -0.80760   2.79578  -1.28742   0.00821  -0.02649   0.00264
   H     -1.23967   3.34818   0.32970  -0.02714  -0.01954  -0.01171
   H     -3.02118   3.34818  -0.32970  -0.02714   0.01954  -0.01171
   H     -3.45324   2.79578   1.28742   0.00821   0.02649   0.00264
PRIMCOORD 17
     18   1
   H      0.80760  -2.79578   1.28742  -0.03017   0.02247   0.00130
   H      1.23967  -3.34818  -0.32970   0.00777  -0.01567   0.02513
   H      3.02118  -3.34818   0.32970   0.00777   0.01567   0.02513
   H      3.45324  -2.79578  -1.28742  -0.03017  -0.02247   0.00130
   C      0.72758  -2.53960   0.20969   0.00018   0.00026  -0.00668
   C      3.53326  -2.53960  -0.20969   0.00018  -0.00026  -0.00668
   C      1.43079  -1.21679   0.01330   0.00706  -0.00271   0.00560
   C      2.83005  -1.21679  -0.01330   0.00706   0.00271   0.00560
   C      0.74552   0.00000  -0.00074  -0.00000  -0.00493  -0.00000
   C      3.51532   0.00000   0.00074  -0.00000   0.00493   0.00000
   C      1.43079   1.21679   0.01330  -0.00706  -0.00271  -0.00560
   C      2.83005   1.21679  -0.01330  -0.00706   0.00271  -0.00560
   C      0.72758   2.53960   0.20969  -0.00018   0.00026   0.00668
   C      3.53326   2.53960  -0.20969  -0.00018  -0.00026   0.00668
   H     -0.80760   2.79578  -1.28742   0.03017  -0.02247  -0.00130
   H     -1.23967   3.34818   0.32970  -0.00777   0.01567  -0.02513
   H     -3.02118   3.34818  -0.32970  -0.00777  -0.01567  -0.02513
   H     -3.45324   2.79578   1.28742   0.03017   0.02247  -0.00130
PRIMCOORD 18
     18   1
   H      0.80760  -2.79578   1.28742   0.00080   0.03119   0.00057
   H      1.23967  -3.34818  -0.32970  -0.00512  -0.01868   0.01491
   H      3.02118  -3.34818   0.32970   0.00512  -0.01868  -0.01491
   H      3.45324  -2.79578  -1.28742  -0.00080   0.03119  -0.00057
   C      0.72758  -2.53960   0.20969   0.00016  -0.00072  -0.00725
   C      3.53326  -2.53960  -0.20969  -0.00016  -0.00072   0.00725
   C      1.43079  -1.21679   0.01330  -0.00003  -0.00241  -0.01724
   C      2.83005  -1.21679  -0.01330   0.00003  -0.00241   0.01724
   C      0.74552   0.00000  -0.00074   0.00113  -0.00000   0.03383
   C      3.51532   0.00000   0.00074  -0.00113   0.00000  -0.03383
   C      1.43079   1.21679   0.01330  -0.00003   0.00241  -0.01724
   C      2.83005   1.21679  -0.01330   0.00003   0.00241   0.01724
   C      0.72758   2.53960   0.20969   0.00016   0.00072  -0.00725
   C      3.53326   2.53960  -0.20969  -0.00016   0.00072   0.00725
   H     -0.80760   2.79578  -1.28742  -0.00080  -0.03119  -0.00057
   H     -1.23967   3.34818   0.32970   0.00512   0.01868  -0.01491
   H     -3.02118   3.34818  -0.32970  -0.00512   0.01868   0.01491
   H     -3.45324   2.79578   1.28742   0.00080  -0.03119   0.00057
PRIMCOORD 19
     18   1
   H      0.80760  -2.79578   1.28742   0.02369  -0.01615  -0.00375
   H      1.23967  -3.34818  -0.32970  -0.01004   0.02656  -0.02583
   H      3.02118  -3.34818   0.32970  -0.01004  -0.02656  -0.02583
   H      3.45324  -2.79578  -1.28742   0.02369   0.01615  -0.00375
   C      0.72758  -2.53960   0.20969  -0.00621   0.00888   0.00491
   C      3.53326  -2.53960  -0.20969  -0.00621  -0.00888   0.00491
   C      1.43079  -1.21679   0.01330   0.00184   0.00329  -0.00323
   C      2.83005  -1.21679  -0.01330   0.00184  -0.00329  -0.00323
   C      0.74552   0.00000  -0.00074   0.00679  -0.00000   0.00161
   C      3.51532   0.00000   0.00074   0.00679  -0.00000   0.00161
   C      1.43079   1.21679   0.01330   0.00184  -0.00329  -0.00323
   C      2.83005   1.21679  -0.01330   0.00184   0.00329  -0.00323
   C      0.72758   2.53960   0.20969  -0.00621  -0.00888   0.00491
   C      3.53326   2.53960  -0.20969  -0.00621   0.00888   0.00491
   H     -0.80760   2.79578  -1.28742   0.02369  -0.01615  -0.00375
   H     -1.23967   3.34818   0.32970  -0.01004   0.02656  -0.02583
   H     -3.02118   3.34818  -0.32970  -0.01004  -0.02656  -0.02583
   H     -3.45324   2.79578   1.28742   0.02369   0.01615  -0.00375
PRIMCOORD 20
     18   1
   H      0.80760  -2.79578   1.28742   0.00052   0.00888  -0.00902
   H      1.23967  -3.34818  -0.32970  -0.01828   0.02170  -0.01426
   H      3.02118  -3.34818   0.32970   0.01828   0.02170   0.01426
   H      3.45324  -2.79578  -1.28742  -0.00052   0.00888   0.00902
   C      0.72758  -2.53960   0.20969  -0.00360   0.02575  -0.00527
   C      3.53326  -2.53960  -0.20969   0.00360   0.02575   0.00527
   C      1.43079  -1.21679   0.01330   0.00432  -0.01455   0.00588
   C      2.83005  -1.21679  -0.01330  -0.00432  -0.01455  -0.00588
   C      0.74552   0.00000  -0.00074  -0.00000  -0.02693  -0.00000
   C      3.51532   0.00000   0.00074  -0.00000  -0.02693  -0.00000
   C      1.43079   1.21679   0.01330  -0.00432  -0.01455  -0.00588
   C      2.83005   1.21679  -0.01330   0.00432  -0.01455   0.00588
   C      0.72758   2.53960   0.20969   0.00360   0.02575   0.00527
   C      3.53326   2.53960  -0.20969  -0.00360   0.02575  -0.00527
   H     -0.80760   2.79578  -1.28742   0.00052   0.00888  -0.00902
   H     -1.23967   3.34818   0.32970  -0.01828   0.02170  -0.01426
   H     -3.02118   3.34818  -0.32970   0.01828   0.02170   0.01426
   H     -3.45324   2.79578   1.28742  -0.00052   0.00888   0.00902
PRIMCOORD 21
     18   1
   H      0.80760  -2.79578   1.28742  -0.00665   0.01686   0.00275
   H      1.23967  -3.34818  -0.32970   0.03315  -0.00350   0.01871
   H      3.02118  -3.34818   0.32970   0.03315   0.00350   0.01871
   H      3.45324  -2.79578  -1.28742  -0.00665  -0.01686   0.00275
   C      0.72758  -2.53960   0.20969   0.01025  -0.00374  -0.00389
   C      3.53326  -2.53960  -0.20969   0.01025   0.00374  -0.00389
   C      1.43079  -1.21679   0.01330  -0.02319  -0.00468   0.00257
   C      2.83005  -1.21679  -0.01330  -0.02319   0.00468   0.00257
   C      0.74552   0.00000  -0.00074   0.00000   0.00198   0.00000
   C      3.51532   0.00000   0.00074   0.00000  -0.00198  -0.00000
   C      1.43079   1.21679   0.01330   0.02319  -0.00468  -0.00257
   C      2.83005   1.21679  -0.01330   0.02319   0.00468  -0.00257
   C      0.72758   2.53960   0.20969  -0.01025  -0.00374   0.00389
   C      3.53326   2.53960  -0.20969  -0.01025   0.00374   0.00389
   H     -0.80760   2.79578  -1.28742   0.00665  -0.01686  -0.00275
   H     -1.23967   3.34818   0.32970  -0.03315   0.00350  -0.01871
   H     -3.02118   3.34818  -0.32970  -0.03315  -0.00350  -0.01871
   H     -3.45324   2.79578   1.28742   0.00665   0.01686  -0.00275
PRIMCOORD 22
     18   1
   H      0.80760  -2.79578   1.28742   0.01217  -0.03271   0.00422
   H      1.23967  -3.34818  -0.32970   0.00718   0.02400  -0.01768
   H      3.02118  -3.34818   0.32970  -0.00718   0.02400   0.01768
   H      3.45324  -2.79578  -1.28742  -0.01217  -0.03271  -0.00422
   C      0.72758  -2.53960   0.20969   0.00164  -0.00021   0.01367
   C      3.53326  -2.53960  -0.20969  -0.00164  -0.00021  -0.01367
   C      1.43079  -1.21679   0.01330  -0.00175   0.00354  -0.00992
   C      2.83005  -1.21679  -0.01330   0.00175   0.00354   0.00992
   C      0.74552   0.00000  -0.00074  -0.00379   0.00000   0.00507
   C      3.51532   0.00000   0.00074   0.00379  -0.00000  -0.00507
   C      1.43079   1.21679   0.01330  -0.00175  -0.00354  -0.00992
   C      2.83005   1.21679  -0.01330   0.00175  -0.00354   0.00992
   C      0.72758   2.53960   0.20969   0.00164   0.00021   0.01367
   C      3.53326   2.53960  -0.20969  -0.00164   0.00021  -0.01367
   H     -0.80760   2.79578  -1.28742  -0.01217   0.03271  -0.00422
   H     -1.23967   3.34818   0.32970  -0.00718  -0.02400   0.01768
   H     -3.02118   3.34818  -0.32970   0.00718  -0.02400  -0.01768
   H     -3.45324   2.79578   1.28742   0.01217   0.03271   0.00422
PRIMCOORD 23
     18   1
   H      0.80760  -2.79578   1.28742   0.00826  -0.03391   0.00211
   H      1.23967  -3.34818  -0.32970   0.00159   0.02517  -0.02019
   H      3.02118  -3.34818   0.32970  -0.00159   0.02517   0.02019
   H      3.45324  -2.79578  -1.28742  -0.00826  -0.03391  -0.00211
   C      0.72758  -2.53960   0.20969  -0.00179   0.00195   0.01222
   C      3.53326  -2.53960  -0.20969   0.00179   0.00195  -0.01222
   C      1.43079  -1.21679   0.01330  -0.00202  -0.00059  -0.00848
   C      2.83005  -1.21679  -0.01330   0.00202  -0.00059   0.00848
   C      0.74552   0.00000  -0.00074  -0.00000  -0.00124   0.00000
   C      3.51532   0.00000   0.00074   0.00000  -0.00124   0.00000
   C      1.43079   1.21679   0.01330   0.00202  -0.00059   0.00848
   C      2.83005   1.21679  -0.01330  -0.00202  -0.00059  -0.00848
   C      0.72758   2.53960   0.20969   0.00179   0.00195  -0.01222
   C      3.53326   2.53960  -0.20969  -0.00179   0.00195   0.01222
   H     -0.80760   2.79578  -1.28742   0.00826  -0.03391   0.00211
   H     -1.23967   3.34818   0.32970   0.00159   0.02517  -0.02019
   H     -3.02118   3.34818  -0.32970  -0.00159   0.02517   0.02019
   H     -3.45324   2.79578   1.28742  -0.00826  -0.03391  -0.00211
PRIMCOORD 24
     18   1
   H      0.80760  -2.79578   1.28742   0.01235   0.02217   0.00769
   H      1.23967  -3.34818  -0.32970   0.02310  -0.01450   0.01898
   H      3.02118  -3.34818   0.32970  -0.02310  -0.01450  -0.01898
   H      3.45324  -2.79578  -1.28742  -0.01235   0.02217  -0.00769
   C      0.72758  -2.53960   0.20969   0.01440  -0.00882  -0.00006
   C      3.53326  -2.53960  -0.20969  -0.01440  -0.00882   0.00006
   C      1.43079  -1.21679   0.01330  -0.00059   0.01704   0.00231
   C      2.83005  -1.21679  -0.01330   0.00059   0.01704  -0.00231
   C      0.74552   0.00000  -0.00074  -0.01491  -0.00000  -0.00092
   C      3.51532   0.00000   0.00074   0.01491   0.00000   0.00092
   C      1.43079   1.21679   0.01330  -0.00059  -0.01704   0.00231
   C      2.83005   1.21679  -0.01330   0.00059  -0.01704  -0.00231
   C      0.72758   2.53960   0.20969   0.01440   0.00882  -0.00006
   C      3.53326   2.53960  -0.20969  -0.01440   0.00882   0.00006
   H     -0.80760   2.79578  -1.28742  -0.01235  -0.02217  -0.00769